t 0.003526 /NodeList/0/DeviceList/1/$ns3::WifiNetDevice/Phy/State/Tx OfdmRate6Mbps ns3::WifiMacHeader (MGT_BEACON ToDS=0, FromDS=0, MoreFrag=0, Retry=0, PowerManagement=0, MoreData=0 Duration/ID=0us, DA=ff:ff:ff:ff:ff:ff, SA=00:00:00:00:00:0f, BSSID=00:00:00:00:00:0f, FragNumber=0, SeqNumber=0) ns3::MgtProbeResponseHeader (ssid=ns-3-ssid , rates=[*6mbs 9mbs *12mbs 18mbs *24mbs 36mbs 48mbs 54mbs] , rates=[0mbs] ,  , HT Capabilities=0|1|0|1 1 1 1 1 1 1 1 0 0 0 0 0 0 0 0 0 0 0 0 0 0 0 0 0 0 0 0 0 0 0 0 0 0 0 0 0 0 0 0 0 0 0 0 0 0 0 0 0 0 0 0 0 0 0 0 0 0 0 0 0 0 0 0 0 0 0 0 0 0 0 0 0 0 0 0 0  , HT Operation=1|1|1|0|0|1|0|0|0|0|0|0|0|65|1|0|0|0|1 0 0 0 0 0 0 0 0 0 0 0 0 0 0 0 0 0 0 0 0 0 0 0 0 0 0 0 0 0 0 0 0 0 0 0 0 0 0 0 0 0 0 0 0 0 0 0 0 0 0 0 0 0 0 0 0 0 0 0 0 0 0 0 0 0 0 0 0 0 0 0 0 0 0 0 0  , Extended Capabilities=0 , VHT Capabilities=25165828|219831948272271358 , VHT Operation=1|42|0|2 , HE Capabilities=0|0|12|0|0|32 , HE Operation=[HE Operation Parameters|Default PE Duration: 0 TWT Required: 0 TXOP Duration RTS Threshold: 0 VHT Operation Information Present: 0 Co-Hosted BSS: 0 ER SU Disable: 0 6 GHz Operation Information Present: 0][BSS Color|BSS Color: 0 Partial BSS Color: 0 BSS Color Disabled: 0][Basic HE-MCS And NSS Set: 65534] , ) 
r 0.00381803 OfdmRate6Mbps /NodeList/10/DeviceList/0/$ns3::WifiNetDevice/Phy/State/RxOk ns3::WifiMacHeader (MGT_BEACON ToDS=0, FromDS=0, MoreFrag=0, Retry=0, PowerManagement=0, MoreData=0 Duration/ID=0us, DA=ff:ff:ff:ff:ff:ff, SA=00:00:00:00:00:0f, BSSID=00:00:00:00:00:0f, FragNumber=0, SeqNumber=0) ns3::MgtProbeResponseHeader (ssid=ns-3-ssid , rates=[*6mbs 9mbs *12mbs 18mbs *24mbs 36mbs 48mbs 54mbs] , rates=[0mbs] ,  , HT Capabilities=0|1|0|1 1 1 1 1 1 1 1 0 0 0 0 0 0 0 0 0 0 0 0 0 0 0 0 0 0 0 0 0 0 0 0 0 0 0 0 0 0 0 0 0 0 0 0 0 0 0 0 0 0 0 0 0 0 0 0 0 0 0 0 0 0 0 0 0 0 0 0 0 0 0 0 0 0 0 0 0  , HT Operation=1|1|1|0|0|1|0|0|0|0|0|0|0|65|1|0|0|0|1 0 0 0 0 0 0 0 0 0 0 0 0 0 0 0 0 0 0 0 0 0 0 0 0 0 0 0 0 0 0 0 0 0 0 0 0 0 0 0 0 0 0 0 0 0 0 0 0 0 0 0 0 0 0 0 0 0 0 0 0 0 0 0 0 0 0 0 0 0 0 0 0 0 0 0 0  , Extended Capabilities=0 , VHT Capabilities=25165828|219831948272271358 , VHT Operation=1|42|0|2 , HE Capabilities=0|0|12|0|0|32 , HE Operation=[HE Operation Parameters|Default PE Duration: 0 TWT Required: 0 TXOP Duration RTS Threshold: 0 VHT Operation Information Present: 0 Co-Hosted BSS: 0 ER SU Disable: 0 6 GHz Operation Information Present: 0][BSS Color|BSS Color: 0 Partial BSS Color: 0 BSS Color Disabled: 0][Basic HE-MCS And NSS Set: 65534] , ) 
r 0.00381804 OfdmRate6Mbps /NodeList/11/DeviceList/0/$ns3::WifiNetDevice/Phy/State/RxOk ns3::WifiMacHeader (MGT_BEACON ToDS=0, FromDS=0, MoreFrag=0, Retry=0, PowerManagement=0, MoreData=0 Duration/ID=0us, DA=ff:ff:ff:ff:ff:ff, SA=00:00:00:00:00:0f, BSSID=00:00:00:00:00:0f, FragNumber=0, SeqNumber=0) ns3::MgtProbeResponseHeader (ssid=ns-3-ssid , rates=[*6mbs 9mbs *12mbs 18mbs *24mbs 36mbs 48mbs 54mbs] , rates=[0mbs] ,  , HT Capabilities=0|1|0|1 1 1 1 1 1 1 1 0 0 0 0 0 0 0 0 0 0 0 0 0 0 0 0 0 0 0 0 0 0 0 0 0 0 0 0 0 0 0 0 0 0 0 0 0 0 0 0 0 0 0 0 0 0 0 0 0 0 0 0 0 0 0 0 0 0 0 0 0 0 0 0 0 0 0 0 0  , HT Operation=1|1|1|0|0|1|0|0|0|0|0|0|0|65|1|0|0|0|1 0 0 0 0 0 0 0 0 0 0 0 0 0 0 0 0 0 0 0 0 0 0 0 0 0 0 0 0 0 0 0 0 0 0 0 0 0 0 0 0 0 0 0 0 0 0 0 0 0 0 0 0 0 0 0 0 0 0 0 0 0 0 0 0 0 0 0 0 0 0 0 0 0 0 0 0  , Extended Capabilities=0 , VHT Capabilities=25165828|219831948272271358 , VHT Operation=1|42|0|2 , HE Capabilities=0|0|12|0|0|32 , HE Operation=[HE Operation Parameters|Default PE Duration: 0 TWT Required: 0 TXOP Duration RTS Threshold: 0 VHT Operation Information Present: 0 Co-Hosted BSS: 0 ER SU Disable: 0 6 GHz Operation Information Present: 0][BSS Color|BSS Color: 0 Partial BSS Color: 0 BSS Color Disabled: 0][Basic HE-MCS And NSS Set: 65534] , ) 
r 0.00381805 OfdmRate6Mbps /NodeList/12/DeviceList/0/$ns3::WifiNetDevice/Phy/State/RxOk ns3::WifiMacHeader (MGT_BEACON ToDS=0, FromDS=0, MoreFrag=0, Retry=0, PowerManagement=0, MoreData=0 Duration/ID=0us, DA=ff:ff:ff:ff:ff:ff, SA=00:00:00:00:00:0f, BSSID=00:00:00:00:00:0f, FragNumber=0, SeqNumber=0) ns3::MgtProbeResponseHeader (ssid=ns-3-ssid , rates=[*6mbs 9mbs *12mbs 18mbs *24mbs 36mbs 48mbs 54mbs] , rates=[0mbs] ,  , HT Capabilities=0|1|0|1 1 1 1 1 1 1 1 0 0 0 0 0 0 0 0 0 0 0 0 0 0 0 0 0 0 0 0 0 0 0 0 0 0 0 0 0 0 0 0 0 0 0 0 0 0 0 0 0 0 0 0 0 0 0 0 0 0 0 0 0 0 0 0 0 0 0 0 0 0 0 0 0 0 0 0 0  , HT Operation=1|1|1|0|0|1|0|0|0|0|0|0|0|65|1|0|0|0|1 0 0 0 0 0 0 0 0 0 0 0 0 0 0 0 0 0 0 0 0 0 0 0 0 0 0 0 0 0 0 0 0 0 0 0 0 0 0 0 0 0 0 0 0 0 0 0 0 0 0 0 0 0 0 0 0 0 0 0 0 0 0 0 0 0 0 0 0 0 0 0 0 0 0 0 0  , Extended Capabilities=0 , VHT Capabilities=25165828|219831948272271358 , VHT Operation=1|42|0|2 , HE Capabilities=0|0|12|0|0|32 , HE Operation=[HE Operation Parameters|Default PE Duration: 0 TWT Required: 0 TXOP Duration RTS Threshold: 0 VHT Operation Information Present: 0 Co-Hosted BSS: 0 ER SU Disable: 0 6 GHz Operation Information Present: 0][BSS Color|BSS Color: 0 Partial BSS Color: 0 BSS Color Disabled: 0][Basic HE-MCS And NSS Set: 65534] , ) 
r 0.00381807 OfdmRate6Mbps /NodeList/7/DeviceList/0/$ns3::WifiNetDevice/Phy/State/RxOk ns3::WifiMacHeader (MGT_BEACON ToDS=0, FromDS=0, MoreFrag=0, Retry=0, PowerManagement=0, MoreData=0 Duration/ID=0us, DA=ff:ff:ff:ff:ff:ff, SA=00:00:00:00:00:0f, BSSID=00:00:00:00:00:0f, FragNumber=0, SeqNumber=0) ns3::MgtProbeResponseHeader (ssid=ns-3-ssid , rates=[*6mbs 9mbs *12mbs 18mbs *24mbs 36mbs 48mbs 54mbs] , rates=[0mbs] ,  , HT Capabilities=0|1|0|1 1 1 1 1 1 1 1 0 0 0 0 0 0 0 0 0 0 0 0 0 0 0 0 0 0 0 0 0 0 0 0 0 0 0 0 0 0 0 0 0 0 0 0 0 0 0 0 0 0 0 0 0 0 0 0 0 0 0 0 0 0 0 0 0 0 0 0 0 0 0 0 0 0 0 0 0  , HT Operation=1|1|1|0|0|1|0|0|0|0|0|0|0|65|1|0|0|0|1 0 0 0 0 0 0 0 0 0 0 0 0 0 0 0 0 0 0 0 0 0 0 0 0 0 0 0 0 0 0 0 0 0 0 0 0 0 0 0 0 0 0 0 0 0 0 0 0 0 0 0 0 0 0 0 0 0 0 0 0 0 0 0 0 0 0 0 0 0 0 0 0 0 0 0 0  , Extended Capabilities=0 , VHT Capabilities=25165828|219831948272271358 , VHT Operation=1|42|0|2 , HE Capabilities=0|0|12|0|0|32 , HE Operation=[HE Operation Parameters|Default PE Duration: 0 TWT Required: 0 TXOP Duration RTS Threshold: 0 VHT Operation Information Present: 0 Co-Hosted BSS: 0 ER SU Disable: 0 6 GHz Operation Information Present: 0][BSS Color|BSS Color: 0 Partial BSS Color: 0 BSS Color Disabled: 0][Basic HE-MCS And NSS Set: 65534] , ) 
r 0.00381807 OfdmRate6Mbps /NodeList/8/DeviceList/0/$ns3::WifiNetDevice/Phy/State/RxOk ns3::WifiMacHeader (MGT_BEACON ToDS=0, FromDS=0, MoreFrag=0, Retry=0, PowerManagement=0, MoreData=0 Duration/ID=0us, DA=ff:ff:ff:ff:ff:ff, SA=00:00:00:00:00:0f, BSSID=00:00:00:00:00:0f, FragNumber=0, SeqNumber=0) ns3::MgtProbeResponseHeader (ssid=ns-3-ssid , rates=[*6mbs 9mbs *12mbs 18mbs *24mbs 36mbs 48mbs 54mbs] , rates=[0mbs] ,  , HT Capabilities=0|1|0|1 1 1 1 1 1 1 1 0 0 0 0 0 0 0 0 0 0 0 0 0 0 0 0 0 0 0 0 0 0 0 0 0 0 0 0 0 0 0 0 0 0 0 0 0 0 0 0 0 0 0 0 0 0 0 0 0 0 0 0 0 0 0 0 0 0 0 0 0 0 0 0 0 0 0 0 0  , HT Operation=1|1|1|0|0|1|0|0|0|0|0|0|0|65|1|0|0|0|1 0 0 0 0 0 0 0 0 0 0 0 0 0 0 0 0 0 0 0 0 0 0 0 0 0 0 0 0 0 0 0 0 0 0 0 0 0 0 0 0 0 0 0 0 0 0 0 0 0 0 0 0 0 0 0 0 0 0 0 0 0 0 0 0 0 0 0 0 0 0 0 0 0 0 0 0  , Extended Capabilities=0 , VHT Capabilities=25165828|219831948272271358 , VHT Operation=1|42|0|2 , HE Capabilities=0|0|12|0|0|32 , HE Operation=[HE Operation Parameters|Default PE Duration: 0 TWT Required: 0 TXOP Duration RTS Threshold: 0 VHT Operation Information Present: 0 Co-Hosted BSS: 0 ER SU Disable: 0 6 GHz Operation Information Present: 0][BSS Color|BSS Color: 0 Partial BSS Color: 0 BSS Color Disabled: 0][Basic HE-MCS And NSS Set: 65534] , ) 
r 0.00381807 OfdmRate6Mbps /NodeList/9/DeviceList/0/$ns3::WifiNetDevice/Phy/State/RxOk ns3::WifiMacHeader (MGT_BEACON ToDS=0, FromDS=0, MoreFrag=0, Retry=0, PowerManagement=0, MoreData=0 Duration/ID=0us, DA=ff:ff:ff:ff:ff:ff, SA=00:00:00:00:00:0f, BSSID=00:00:00:00:00:0f, FragNumber=0, SeqNumber=0) ns3::MgtProbeResponseHeader (ssid=ns-3-ssid , rates=[*6mbs 9mbs *12mbs 18mbs *24mbs 36mbs 48mbs 54mbs] , rates=[0mbs] ,  , HT Capabilities=0|1|0|1 1 1 1 1 1 1 1 0 0 0 0 0 0 0 0 0 0 0 0 0 0 0 0 0 0 0 0 0 0 0 0 0 0 0 0 0 0 0 0 0 0 0 0 0 0 0 0 0 0 0 0 0 0 0 0 0 0 0 0 0 0 0 0 0 0 0 0 0 0 0 0 0 0 0 0 0  , HT Operation=1|1|1|0|0|1|0|0|0|0|0|0|0|65|1|0|0|0|1 0 0 0 0 0 0 0 0 0 0 0 0 0 0 0 0 0 0 0 0 0 0 0 0 0 0 0 0 0 0 0 0 0 0 0 0 0 0 0 0 0 0 0 0 0 0 0 0 0 0 0 0 0 0 0 0 0 0 0 0 0 0 0 0 0 0 0 0 0 0 0 0 0 0 0 0  , Extended Capabilities=0 , VHT Capabilities=25165828|219831948272271358 , VHT Operation=1|42|0|2 , HE Capabilities=0|0|12|0|0|32 , HE Operation=[HE Operation Parameters|Default PE Duration: 0 TWT Required: 0 TXOP Duration RTS Threshold: 0 VHT Operation Information Present: 0 Co-Hosted BSS: 0 ER SU Disable: 0 6 GHz Operation Information Present: 0][BSS Color|BSS Color: 0 Partial BSS Color: 0 BSS Color Disabled: 0][Basic HE-MCS And NSS Set: 65534] , ) 
t 0.105926 /NodeList/0/DeviceList/1/$ns3::WifiNetDevice/Phy/State/Tx OfdmRate6Mbps ns3::WifiMacHeader (MGT_BEACON ToDS=0, FromDS=0, MoreFrag=0, Retry=0, PowerManagement=0, MoreData=0 Duration/ID=0us, DA=ff:ff:ff:ff:ff:ff, SA=00:00:00:00:00:0f, BSSID=00:00:00:00:00:0f, FragNumber=0, SeqNumber=1) ns3::MgtProbeResponseHeader (ssid=ns-3-ssid , rates=[*6mbs 9mbs *12mbs 18mbs *24mbs 36mbs 48mbs 54mbs] , rates=[0mbs] ,  , HT Capabilities=0|1|0|1 1 1 1 1 1 1 1 0 0 0 0 0 0 0 0 0 0 0 0 0 0 0 0 0 0 0 0 0 0 0 0 0 0 0 0 0 0 0 0 0 0 0 0 0 0 0 0 0 0 0 0 0 0 0 0 0 0 0 0 0 0 0 0 0 0 0 0 0 0 0 0 0 0 0 0 0  , HT Operation=1|1|1|0|0|1|0|0|0|0|0|0|0|65|1|0|0|0|1 0 0 0 0 0 0 0 0 0 0 0 0 0 0 0 0 0 0 0 0 0 0 0 0 0 0 0 0 0 0 0 0 0 0 0 0 0 0 0 0 0 0 0 0 0 0 0 0 0 0 0 0 0 0 0 0 0 0 0 0 0 0 0 0 0 0 0 0 0 0 0 0 0 0 0 0  , Extended Capabilities=0 , VHT Capabilities=25165828|219831948272271358 , VHT Operation=1|42|0|2 , HE Capabilities=0|0|12|0|0|32 , HE Operation=[HE Operation Parameters|Default PE Duration: 0 TWT Required: 0 TXOP Duration RTS Threshold: 0 VHT Operation Information Present: 0 Co-Hosted BSS: 0 ER SU Disable: 0 6 GHz Operation Information Present: 0][BSS Color|BSS Color: 0 Partial BSS Color: 0 BSS Color Disabled: 0][Basic HE-MCS And NSS Set: 65534] , ) 
r 0.106218 OfdmRate6Mbps /NodeList/10/DeviceList/0/$ns3::WifiNetDevice/Phy/State/RxOk ns3::WifiMacHeader (MGT_BEACON ToDS=0, FromDS=0, MoreFrag=0, Retry=0, PowerManagement=0, MoreData=0 Duration/ID=0us, DA=ff:ff:ff:ff:ff:ff, SA=00:00:00:00:00:0f, BSSID=00:00:00:00:00:0f, FragNumber=0, SeqNumber=1) ns3::MgtProbeResponseHeader (ssid=ns-3-ssid , rates=[*6mbs 9mbs *12mbs 18mbs *24mbs 36mbs 48mbs 54mbs] , rates=[0mbs] ,  , HT Capabilities=0|1|0|1 1 1 1 1 1 1 1 0 0 0 0 0 0 0 0 0 0 0 0 0 0 0 0 0 0 0 0 0 0 0 0 0 0 0 0 0 0 0 0 0 0 0 0 0 0 0 0 0 0 0 0 0 0 0 0 0 0 0 0 0 0 0 0 0 0 0 0 0 0 0 0 0 0 0 0 0  , HT Operation=1|1|1|0|0|1|0|0|0|0|0|0|0|65|1|0|0|0|1 0 0 0 0 0 0 0 0 0 0 0 0 0 0 0 0 0 0 0 0 0 0 0 0 0 0 0 0 0 0 0 0 0 0 0 0 0 0 0 0 0 0 0 0 0 0 0 0 0 0 0 0 0 0 0 0 0 0 0 0 0 0 0 0 0 0 0 0 0 0 0 0 0 0 0 0  , Extended Capabilities=0 , VHT Capabilities=25165828|219831948272271358 , VHT Operation=1|42|0|2 , HE Capabilities=0|0|12|0|0|32 , HE Operation=[HE Operation Parameters|Default PE Duration: 0 TWT Required: 0 TXOP Duration RTS Threshold: 0 VHT Operation Information Present: 0 Co-Hosted BSS: 0 ER SU Disable: 0 6 GHz Operation Information Present: 0][BSS Color|BSS Color: 0 Partial BSS Color: 0 BSS Color Disabled: 0][Basic HE-MCS And NSS Set: 65534] , ) 
r 0.106218 OfdmRate6Mbps /NodeList/11/DeviceList/0/$ns3::WifiNetDevice/Phy/State/RxOk ns3::WifiMacHeader (MGT_BEACON ToDS=0, FromDS=0, MoreFrag=0, Retry=0, PowerManagement=0, MoreData=0 Duration/ID=0us, DA=ff:ff:ff:ff:ff:ff, SA=00:00:00:00:00:0f, BSSID=00:00:00:00:00:0f, FragNumber=0, SeqNumber=1) ns3::MgtProbeResponseHeader (ssid=ns-3-ssid , rates=[*6mbs 9mbs *12mbs 18mbs *24mbs 36mbs 48mbs 54mbs] , rates=[0mbs] ,  , HT Capabilities=0|1|0|1 1 1 1 1 1 1 1 0 0 0 0 0 0 0 0 0 0 0 0 0 0 0 0 0 0 0 0 0 0 0 0 0 0 0 0 0 0 0 0 0 0 0 0 0 0 0 0 0 0 0 0 0 0 0 0 0 0 0 0 0 0 0 0 0 0 0 0 0 0 0 0 0 0 0 0 0  , HT Operation=1|1|1|0|0|1|0|0|0|0|0|0|0|65|1|0|0|0|1 0 0 0 0 0 0 0 0 0 0 0 0 0 0 0 0 0 0 0 0 0 0 0 0 0 0 0 0 0 0 0 0 0 0 0 0 0 0 0 0 0 0 0 0 0 0 0 0 0 0 0 0 0 0 0 0 0 0 0 0 0 0 0 0 0 0 0 0 0 0 0 0 0 0 0 0  , Extended Capabilities=0 , VHT Capabilities=25165828|219831948272271358 , VHT Operation=1|42|0|2 , HE Capabilities=0|0|12|0|0|32 , HE Operation=[HE Operation Parameters|Default PE Duration: 0 TWT Required: 0 TXOP Duration RTS Threshold: 0 VHT Operation Information Present: 0 Co-Hosted BSS: 0 ER SU Disable: 0 6 GHz Operation Information Present: 0][BSS Color|BSS Color: 0 Partial BSS Color: 0 BSS Color Disabled: 0][Basic HE-MCS And NSS Set: 65534] , ) 
r 0.106218 OfdmRate6Mbps /NodeList/12/DeviceList/0/$ns3::WifiNetDevice/Phy/State/RxOk ns3::WifiMacHeader (MGT_BEACON ToDS=0, FromDS=0, MoreFrag=0, Retry=0, PowerManagement=0, MoreData=0 Duration/ID=0us, DA=ff:ff:ff:ff:ff:ff, SA=00:00:00:00:00:0f, BSSID=00:00:00:00:00:0f, FragNumber=0, SeqNumber=1) ns3::MgtProbeResponseHeader (ssid=ns-3-ssid , rates=[*6mbs 9mbs *12mbs 18mbs *24mbs 36mbs 48mbs 54mbs] , rates=[0mbs] ,  , HT Capabilities=0|1|0|1 1 1 1 1 1 1 1 0 0 0 0 0 0 0 0 0 0 0 0 0 0 0 0 0 0 0 0 0 0 0 0 0 0 0 0 0 0 0 0 0 0 0 0 0 0 0 0 0 0 0 0 0 0 0 0 0 0 0 0 0 0 0 0 0 0 0 0 0 0 0 0 0 0 0 0 0  , HT Operation=1|1|1|0|0|1|0|0|0|0|0|0|0|65|1|0|0|0|1 0 0 0 0 0 0 0 0 0 0 0 0 0 0 0 0 0 0 0 0 0 0 0 0 0 0 0 0 0 0 0 0 0 0 0 0 0 0 0 0 0 0 0 0 0 0 0 0 0 0 0 0 0 0 0 0 0 0 0 0 0 0 0 0 0 0 0 0 0 0 0 0 0 0 0 0  , Extended Capabilities=0 , VHT Capabilities=25165828|219831948272271358 , VHT Operation=1|42|0|2 , HE Capabilities=0|0|12|0|0|32 , HE Operation=[HE Operation Parameters|Default PE Duration: 0 TWT Required: 0 TXOP Duration RTS Threshold: 0 VHT Operation Information Present: 0 Co-Hosted BSS: 0 ER SU Disable: 0 6 GHz Operation Information Present: 0][BSS Color|BSS Color: 0 Partial BSS Color: 0 BSS Color Disabled: 0][Basic HE-MCS And NSS Set: 65534] , ) 
r 0.106218 OfdmRate6Mbps /NodeList/7/DeviceList/0/$ns3::WifiNetDevice/Phy/State/RxOk ns3::WifiMacHeader (MGT_BEACON ToDS=0, FromDS=0, MoreFrag=0, Retry=0, PowerManagement=0, MoreData=0 Duration/ID=0us, DA=ff:ff:ff:ff:ff:ff, SA=00:00:00:00:00:0f, BSSID=00:00:00:00:00:0f, FragNumber=0, SeqNumber=1) ns3::MgtProbeResponseHeader (ssid=ns-3-ssid , rates=[*6mbs 9mbs *12mbs 18mbs *24mbs 36mbs 48mbs 54mbs] , rates=[0mbs] ,  , HT Capabilities=0|1|0|1 1 1 1 1 1 1 1 0 0 0 0 0 0 0 0 0 0 0 0 0 0 0 0 0 0 0 0 0 0 0 0 0 0 0 0 0 0 0 0 0 0 0 0 0 0 0 0 0 0 0 0 0 0 0 0 0 0 0 0 0 0 0 0 0 0 0 0 0 0 0 0 0 0 0 0 0  , HT Operation=1|1|1|0|0|1|0|0|0|0|0|0|0|65|1|0|0|0|1 0 0 0 0 0 0 0 0 0 0 0 0 0 0 0 0 0 0 0 0 0 0 0 0 0 0 0 0 0 0 0 0 0 0 0 0 0 0 0 0 0 0 0 0 0 0 0 0 0 0 0 0 0 0 0 0 0 0 0 0 0 0 0 0 0 0 0 0 0 0 0 0 0 0 0 0  , Extended Capabilities=0 , VHT Capabilities=25165828|219831948272271358 , VHT Operation=1|42|0|2 , HE Capabilities=0|0|12|0|0|32 , HE Operation=[HE Operation Parameters|Default PE Duration: 0 TWT Required: 0 TXOP Duration RTS Threshold: 0 VHT Operation Information Present: 0 Co-Hosted BSS: 0 ER SU Disable: 0 6 GHz Operation Information Present: 0][BSS Color|BSS Color: 0 Partial BSS Color: 0 BSS Color Disabled: 0][Basic HE-MCS And NSS Set: 65534] , ) 
r 0.106218 OfdmRate6Mbps /NodeList/8/DeviceList/0/$ns3::WifiNetDevice/Phy/State/RxOk ns3::WifiMacHeader (MGT_BEACON ToDS=0, FromDS=0, MoreFrag=0, Retry=0, PowerManagement=0, MoreData=0 Duration/ID=0us, DA=ff:ff:ff:ff:ff:ff, SA=00:00:00:00:00:0f, BSSID=00:00:00:00:00:0f, FragNumber=0, SeqNumber=1) ns3::MgtProbeResponseHeader (ssid=ns-3-ssid , rates=[*6mbs 9mbs *12mbs 18mbs *24mbs 36mbs 48mbs 54mbs] , rates=[0mbs] ,  , HT Capabilities=0|1|0|1 1 1 1 1 1 1 1 0 0 0 0 0 0 0 0 0 0 0 0 0 0 0 0 0 0 0 0 0 0 0 0 0 0 0 0 0 0 0 0 0 0 0 0 0 0 0 0 0 0 0 0 0 0 0 0 0 0 0 0 0 0 0 0 0 0 0 0 0 0 0 0 0 0 0 0 0  , HT Operation=1|1|1|0|0|1|0|0|0|0|0|0|0|65|1|0|0|0|1 0 0 0 0 0 0 0 0 0 0 0 0 0 0 0 0 0 0 0 0 0 0 0 0 0 0 0 0 0 0 0 0 0 0 0 0 0 0 0 0 0 0 0 0 0 0 0 0 0 0 0 0 0 0 0 0 0 0 0 0 0 0 0 0 0 0 0 0 0 0 0 0 0 0 0 0  , Extended Capabilities=0 , VHT Capabilities=25165828|219831948272271358 , VHT Operation=1|42|0|2 , HE Capabilities=0|0|12|0|0|32 , HE Operation=[HE Operation Parameters|Default PE Duration: 0 TWT Required: 0 TXOP Duration RTS Threshold: 0 VHT Operation Information Present: 0 Co-Hosted BSS: 0 ER SU Disable: 0 6 GHz Operation Information Present: 0][BSS Color|BSS Color: 0 Partial BSS Color: 0 BSS Color Disabled: 0][Basic HE-MCS And NSS Set: 65534] , ) 
r 0.106218 OfdmRate6Mbps /NodeList/9/DeviceList/0/$ns3::WifiNetDevice/Phy/State/RxOk ns3::WifiMacHeader (MGT_BEACON ToDS=0, FromDS=0, MoreFrag=0, Retry=0, PowerManagement=0, MoreData=0 Duration/ID=0us, DA=ff:ff:ff:ff:ff:ff, SA=00:00:00:00:00:0f, BSSID=00:00:00:00:00:0f, FragNumber=0, SeqNumber=1) ns3::MgtProbeResponseHeader (ssid=ns-3-ssid , rates=[*6mbs 9mbs *12mbs 18mbs *24mbs 36mbs 48mbs 54mbs] , rates=[0mbs] ,  , HT Capabilities=0|1|0|1 1 1 1 1 1 1 1 0 0 0 0 0 0 0 0 0 0 0 0 0 0 0 0 0 0 0 0 0 0 0 0 0 0 0 0 0 0 0 0 0 0 0 0 0 0 0 0 0 0 0 0 0 0 0 0 0 0 0 0 0 0 0 0 0 0 0 0 0 0 0 0 0 0 0 0 0  , HT Operation=1|1|1|0|0|1|0|0|0|0|0|0|0|65|1|0|0|0|1 0 0 0 0 0 0 0 0 0 0 0 0 0 0 0 0 0 0 0 0 0 0 0 0 0 0 0 0 0 0 0 0 0 0 0 0 0 0 0 0 0 0 0 0 0 0 0 0 0 0 0 0 0 0 0 0 0 0 0 0 0 0 0 0 0 0 0 0 0 0 0 0 0 0 0 0  , Extended Capabilities=0 , VHT Capabilities=25165828|219831948272271358 , VHT Operation=1|42|0|2 , HE Capabilities=0|0|12|0|0|32 , HE Operation=[HE Operation Parameters|Default PE Duration: 0 TWT Required: 0 TXOP Duration RTS Threshold: 0 VHT Operation Information Present: 0 Co-Hosted BSS: 0 ER SU Disable: 0 6 GHz Operation Information Present: 0][BSS Color|BSS Color: 0 Partial BSS Color: 0 BSS Color Disabled: 0][Basic HE-MCS And NSS Set: 65534] , ) 
t 0.120004 /NodeList/10/DeviceList/0/$ns3::WifiNetDevice/Phy/State/Tx OfdmRate6Mbps ns3::WifiMacHeader (MGT_ASSOCIATION_REQUEST ToDS=0, FromDS=0, MoreFrag=0, Retry=0, PowerManagement=0, MoreData=0 Duration/ID=1880us, DA=00:00:00:00:00:0f, SA=00:00:00:00:00:0c, BSSID=00:00:00:00:00:0f, FragNumber=0, SeqNumber=0) ns3::MgtAssocRequestHeader (ssid=ns-3-ssid , rates=[6mbs 9mbs 12mbs 18mbs 24mbs 36mbs 48mbs 54mbs] , rates=[0mbs] , HT Capabilities=0|1|0|1 1 1 1 1 1 1 1 0 0 0 0 0 0 0 0 0 0 0 0 0 0 0 0 0 0 0 0 0 0 0 0 0 0 0 0 0 0 0 0 0 0 0 0 0 0 0 0 0 0 0 0 0 0 0 0 0 0 0 0 0 0 0 0 0 0 0 0 0 0 0 0 0 0 0 0 0  , Extended Capabilities=0 , VHT Capabilities=25165828|219831948272271358 , HE Capabilities=0|0|12|0|0|32 , ) 
t 0.120004 /NodeList/11/DeviceList/0/$ns3::WifiNetDevice/Phy/State/Tx OfdmRate6Mbps ns3::WifiMacHeader (MGT_ASSOCIATION_REQUEST ToDS=0, FromDS=0, MoreFrag=0, Retry=0, PowerManagement=0, MoreData=0 Duration/ID=1880us, DA=00:00:00:00:00:0f, SA=00:00:00:00:00:0d, BSSID=00:00:00:00:00:0f, FragNumber=0, SeqNumber=0) ns3::MgtAssocRequestHeader (ssid=ns-3-ssid , rates=[6mbs 9mbs 12mbs 18mbs 24mbs 36mbs 48mbs 54mbs] , rates=[0mbs] , HT Capabilities=0|1|0|1 1 1 1 1 1 1 1 0 0 0 0 0 0 0 0 0 0 0 0 0 0 0 0 0 0 0 0 0 0 0 0 0 0 0 0 0 0 0 0 0 0 0 0 0 0 0 0 0 0 0 0 0 0 0 0 0 0 0 0 0 0 0 0 0 0 0 0 0 0 0 0 0 0 0 0 0  , Extended Capabilities=0 , VHT Capabilities=25165828|219831948272271358 , HE Capabilities=0|0|12|0|0|32 , ) 
t 0.120004 /NodeList/12/DeviceList/0/$ns3::WifiNetDevice/Phy/State/Tx OfdmRate6Mbps ns3::WifiMacHeader (MGT_ASSOCIATION_REQUEST ToDS=0, FromDS=0, MoreFrag=0, Retry=0, PowerManagement=0, MoreData=0 Duration/ID=1880us, DA=00:00:00:00:00:0f, SA=00:00:00:00:00:0e, BSSID=00:00:00:00:00:0f, FragNumber=0, SeqNumber=0) ns3::MgtAssocRequestHeader (ssid=ns-3-ssid , rates=[6mbs 9mbs 12mbs 18mbs 24mbs 36mbs 48mbs 54mbs] , rates=[0mbs] , HT Capabilities=0|1|0|1 1 1 1 1 1 1 1 0 0 0 0 0 0 0 0 0 0 0 0 0 0 0 0 0 0 0 0 0 0 0 0 0 0 0 0 0 0 0 0 0 0 0 0 0 0 0 0 0 0 0 0 0 0 0 0 0 0 0 0 0 0 0 0 0 0 0 0 0 0 0 0 0 0 0 0 0  , Extended Capabilities=0 , VHT Capabilities=25165828|219831948272271358 , HE Capabilities=0|0|12|0|0|32 , ) 
t 0.120004 /NodeList/7/DeviceList/0/$ns3::WifiNetDevice/Phy/State/Tx OfdmRate6Mbps ns3::WifiMacHeader (MGT_ASSOCIATION_REQUEST ToDS=0, FromDS=0, MoreFrag=0, Retry=0, PowerManagement=0, MoreData=0 Duration/ID=1880us, DA=00:00:00:00:00:0f, SA=00:00:00:00:00:09, BSSID=00:00:00:00:00:0f, FragNumber=0, SeqNumber=0) ns3::MgtAssocRequestHeader (ssid=ns-3-ssid , rates=[6mbs 9mbs 12mbs 18mbs 24mbs 36mbs 48mbs 54mbs] , rates=[0mbs] , HT Capabilities=0|1|0|1 1 1 1 1 1 1 1 0 0 0 0 0 0 0 0 0 0 0 0 0 0 0 0 0 0 0 0 0 0 0 0 0 0 0 0 0 0 0 0 0 0 0 0 0 0 0 0 0 0 0 0 0 0 0 0 0 0 0 0 0 0 0 0 0 0 0 0 0 0 0 0 0 0 0 0 0  , Extended Capabilities=0 , VHT Capabilities=25165828|219831948272271358 , HE Capabilities=0|0|12|0|0|32 , ) 
t 0.120004 /NodeList/8/DeviceList/0/$ns3::WifiNetDevice/Phy/State/Tx OfdmRate6Mbps ns3::WifiMacHeader (MGT_ASSOCIATION_REQUEST ToDS=0, FromDS=0, MoreFrag=0, Retry=0, PowerManagement=0, MoreData=0 Duration/ID=1880us, DA=00:00:00:00:00:0f, SA=00:00:00:00:00:0a, BSSID=00:00:00:00:00:0f, FragNumber=0, SeqNumber=0) ns3::MgtAssocRequestHeader (ssid=ns-3-ssid , rates=[6mbs 9mbs 12mbs 18mbs 24mbs 36mbs 48mbs 54mbs] , rates=[0mbs] , HT Capabilities=0|1|0|1 1 1 1 1 1 1 1 0 0 0 0 0 0 0 0 0 0 0 0 0 0 0 0 0 0 0 0 0 0 0 0 0 0 0 0 0 0 0 0 0 0 0 0 0 0 0 0 0 0 0 0 0 0 0 0 0 0 0 0 0 0 0 0 0 0 0 0 0 0 0 0 0 0 0 0 0  , Extended Capabilities=0 , VHT Capabilities=25165828|219831948272271358 , HE Capabilities=0|0|12|0|0|32 , ) 
t 0.120004 /NodeList/9/DeviceList/0/$ns3::WifiNetDevice/Phy/State/Tx OfdmRate6Mbps ns3::WifiMacHeader (MGT_ASSOCIATION_REQUEST ToDS=0, FromDS=0, MoreFrag=0, Retry=0, PowerManagement=0, MoreData=0 Duration/ID=1880us, DA=00:00:00:00:00:0f, SA=00:00:00:00:00:0b, BSSID=00:00:00:00:00:0f, FragNumber=0, SeqNumber=0) ns3::MgtAssocRequestHeader (ssid=ns-3-ssid , rates=[6mbs 9mbs 12mbs 18mbs 24mbs 36mbs 48mbs 54mbs] , rates=[0mbs] , HT Capabilities=0|1|0|1 1 1 1 1 1 1 1 0 0 0 0 0 0 0 0 0 0 0 0 0 0 0 0 0 0 0 0 0 0 0 0 0 0 0 0 0 0 0 0 0 0 0 0 0 0 0 0 0 0 0 0 0 0 0 0 0 0 0 0 0 0 0 0 0 0 0 0 0 0 0 0 0 0 0 0 0  , Extended Capabilities=0 , VHT Capabilities=25165828|219831948272271358 , HE Capabilities=0|0|12|0|0|32 , ) 
t 0.120301 /NodeList/10/DeviceList/0/$ns3::WifiNetDevice/Phy/State/Tx OfdmRate6Mbps ns3::WifiMacHeader (MGT_ASSOCIATION_REQUEST ToDS=0, FromDS=0, MoreFrag=0, Retry=1, PowerManagement=0, MoreData=0 Duration/ID=1880us, DA=00:00:00:00:00:0f, SA=00:00:00:00:00:0c, BSSID=00:00:00:00:00:0f, FragNumber=0, SeqNumber=0) ns3::MgtAssocRequestHeader (ssid=ns-3-ssid , rates=[6mbs 9mbs 12mbs 18mbs 24mbs 36mbs 48mbs 54mbs] , rates=[0mbs] , HT Capabilities=0|1|0|1 1 1 1 1 1 1 1 0 0 0 0 0 0 0 0 0 0 0 0 0 0 0 0 0 0 0 0 0 0 0 0 0 0 0 0 0 0 0 0 0 0 0 0 0 0 0 0 0 0 0 0 0 0 0 0 0 0 0 0 0 0 0 0 0 0 0 0 0 0 0 0 0 0 0 0 0  , Extended Capabilities=0 , VHT Capabilities=25165828|219831948272271358 , HE Capabilities=0|0|12|0|0|32 , ) 
t 0.120301 /NodeList/12/DeviceList/0/$ns3::WifiNetDevice/Phy/State/Tx OfdmRate6Mbps ns3::WifiMacHeader (MGT_ASSOCIATION_REQUEST ToDS=0, FromDS=0, MoreFrag=0, Retry=1, PowerManagement=0, MoreData=0 Duration/ID=1880us, DA=00:00:00:00:00:0f, SA=00:00:00:00:00:0e, BSSID=00:00:00:00:00:0f, FragNumber=0, SeqNumber=0) ns3::MgtAssocRequestHeader (ssid=ns-3-ssid , rates=[6mbs 9mbs 12mbs 18mbs 24mbs 36mbs 48mbs 54mbs] , rates=[0mbs] , HT Capabilities=0|1|0|1 1 1 1 1 1 1 1 0 0 0 0 0 0 0 0 0 0 0 0 0 0 0 0 0 0 0 0 0 0 0 0 0 0 0 0 0 0 0 0 0 0 0 0 0 0 0 0 0 0 0 0 0 0 0 0 0 0 0 0 0 0 0 0 0 0 0 0 0 0 0 0 0 0 0 0 0  , Extended Capabilities=0 , VHT Capabilities=25165828|219831948272271358 , HE Capabilities=0|0|12|0|0|32 , ) 
t 0.120301 /NodeList/7/DeviceList/0/$ns3::WifiNetDevice/Phy/State/Tx OfdmRate6Mbps ns3::WifiMacHeader (MGT_ASSOCIATION_REQUEST ToDS=0, FromDS=0, MoreFrag=0, Retry=1, PowerManagement=0, MoreData=0 Duration/ID=1880us, DA=00:00:00:00:00:0f, SA=00:00:00:00:00:09, BSSID=00:00:00:00:00:0f, FragNumber=0, SeqNumber=0) ns3::MgtAssocRequestHeader (ssid=ns-3-ssid , rates=[6mbs 9mbs 12mbs 18mbs 24mbs 36mbs 48mbs 54mbs] , rates=[0mbs] , HT Capabilities=0|1|0|1 1 1 1 1 1 1 1 0 0 0 0 0 0 0 0 0 0 0 0 0 0 0 0 0 0 0 0 0 0 0 0 0 0 0 0 0 0 0 0 0 0 0 0 0 0 0 0 0 0 0 0 0 0 0 0 0 0 0 0 0 0 0 0 0 0 0 0 0 0 0 0 0 0 0 0 0  , Extended Capabilities=0 , VHT Capabilities=25165828|219831948272271358 , HE Capabilities=0|0|12|0|0|32 , ) 
r 0.120501 OfdmRate6Mbps /NodeList/8/DeviceList/0/$ns3::WifiNetDevice/Phy/State/RxOk ns3::WifiMacHeader (MGT_ASSOCIATION_REQUEST ToDS=0, FromDS=0, MoreFrag=0, Retry=1, PowerManagement=0, MoreData=0 Duration/ID=1880us, DA=00:00:00:00:00:0f, SA=00:00:00:00:00:09, BSSID=00:00:00:00:00:0f, FragNumber=0, SeqNumber=0) ns3::MgtAssocRequestHeader (ssid=ns-3-ssid , rates=[6mbs 9mbs 12mbs 18mbs 24mbs 36mbs 48mbs 54mbs] , rates=[0mbs] , HT Capabilities=0|1|0|1 1 1 1 1 1 1 1 0 0 0 0 0 0 0 0 0 0 0 0 0 0 0 0 0 0 0 0 0 0 0 0 0 0 0 0 0 0 0 0 0 0 0 0 0 0 0 0 0 0 0 0 0 0 0 0 0 0 0 0 0 0 0 0 0 0 0 0 0 0 0 0 0 0 0 0 0  , Extended Capabilities=0 , VHT Capabilities=25165828|219831948272271358 , HE Capabilities=0|0|12|0|0|32 , ) 
t 0.120535 /NodeList/11/DeviceList/0/$ns3::WifiNetDevice/Phy/State/Tx OfdmRate6Mbps ns3::WifiMacHeader (MGT_ASSOCIATION_REQUEST ToDS=0, FromDS=0, MoreFrag=0, Retry=1, PowerManagement=0, MoreData=0 Duration/ID=1880us, DA=00:00:00:00:00:0f, SA=00:00:00:00:00:0d, BSSID=00:00:00:00:00:0f, FragNumber=0, SeqNumber=0) ns3::MgtAssocRequestHeader (ssid=ns-3-ssid , rates=[6mbs 9mbs 12mbs 18mbs 24mbs 36mbs 48mbs 54mbs] , rates=[0mbs] , HT Capabilities=0|1|0|1 1 1 1 1 1 1 1 0 0 0 0 0 0 0 0 0 0 0 0 0 0 0 0 0 0 0 0 0 0 0 0 0 0 0 0 0 0 0 0 0 0 0 0 0 0 0 0 0 0 0 0 0 0 0 0 0 0 0 0 0 0 0 0 0 0 0 0 0 0 0 0 0 0 0 0 0  , Extended Capabilities=0 , VHT Capabilities=25165828|219831948272271358 , HE Capabilities=0|0|12|0|0|32 , ) 
r 0.120735 OfdmRate6Mbps /NodeList/10/DeviceList/0/$ns3::WifiNetDevice/Phy/State/RxOk ns3::WifiMacHeader (MGT_ASSOCIATION_REQUEST ToDS=0, FromDS=0, MoreFrag=0, Retry=1, PowerManagement=0, MoreData=0 Duration/ID=1880us, DA=00:00:00:00:00:0f, SA=00:00:00:00:00:0d, BSSID=00:00:00:00:00:0f, FragNumber=0, SeqNumber=0) ns3::MgtAssocRequestHeader (ssid=ns-3-ssid , rates=[6mbs 9mbs 12mbs 18mbs 24mbs 36mbs 48mbs 54mbs] , rates=[0mbs] , HT Capabilities=0|1|0|1 1 1 1 1 1 1 1 0 0 0 0 0 0 0 0 0 0 0 0 0 0 0 0 0 0 0 0 0 0 0 0 0 0 0 0 0 0 0 0 0 0 0 0 0 0 0 0 0 0 0 0 0 0 0 0 0 0 0 0 0 0 0 0 0 0 0 0 0 0 0 0 0 0 0 0 0  , Extended Capabilities=0 , VHT Capabilities=25165828|219831948272271358 , HE Capabilities=0|0|12|0|0|32 , ) 
r 0.120735 OfdmRate6Mbps /NodeList/12/DeviceList/0/$ns3::WifiNetDevice/Phy/State/RxOk ns3::WifiMacHeader (MGT_ASSOCIATION_REQUEST ToDS=0, FromDS=0, MoreFrag=0, Retry=1, PowerManagement=0, MoreData=0 Duration/ID=1880us, DA=00:00:00:00:00:0f, SA=00:00:00:00:00:0d, BSSID=00:00:00:00:00:0f, FragNumber=0, SeqNumber=0) ns3::MgtAssocRequestHeader (ssid=ns-3-ssid , rates=[6mbs 9mbs 12mbs 18mbs 24mbs 36mbs 48mbs 54mbs] , rates=[0mbs] , HT Capabilities=0|1|0|1 1 1 1 1 1 1 1 0 0 0 0 0 0 0 0 0 0 0 0 0 0 0 0 0 0 0 0 0 0 0 0 0 0 0 0 0 0 0 0 0 0 0 0 0 0 0 0 0 0 0 0 0 0 0 0 0 0 0 0 0 0 0 0 0 0 0 0 0 0 0 0 0 0 0 0 0  , Extended Capabilities=0 , VHT Capabilities=25165828|219831948272271358 , HE Capabilities=0|0|12|0|0|32 , ) 
r 0.120735 OfdmRate6Mbps /NodeList/8/DeviceList/0/$ns3::WifiNetDevice/Phy/State/RxOk ns3::WifiMacHeader (MGT_ASSOCIATION_REQUEST ToDS=0, FromDS=0, MoreFrag=0, Retry=1, PowerManagement=0, MoreData=0 Duration/ID=1880us, DA=00:00:00:00:00:0f, SA=00:00:00:00:00:0d, BSSID=00:00:00:00:00:0f, FragNumber=0, SeqNumber=0) ns3::MgtAssocRequestHeader (ssid=ns-3-ssid , rates=[6mbs 9mbs 12mbs 18mbs 24mbs 36mbs 48mbs 54mbs] , rates=[0mbs] , HT Capabilities=0|1|0|1 1 1 1 1 1 1 1 0 0 0 0 0 0 0 0 0 0 0 0 0 0 0 0 0 0 0 0 0 0 0 0 0 0 0 0 0 0 0 0 0 0 0 0 0 0 0 0 0 0 0 0 0 0 0 0 0 0 0 0 0 0 0 0 0 0 0 0 0 0 0 0 0 0 0 0 0  , Extended Capabilities=0 , VHT Capabilities=25165828|219831948272271358 , HE Capabilities=0|0|12|0|0|32 , ) 
r 0.120735 OfdmRate6Mbps /NodeList/0/DeviceList/1/$ns3::WifiNetDevice/Phy/State/RxOk ns3::WifiMacHeader (MGT_ASSOCIATION_REQUEST ToDS=0, FromDS=0, MoreFrag=0, Retry=1, PowerManagement=0, MoreData=0 Duration/ID=1880us, DA=00:00:00:00:00:0f, SA=00:00:00:00:00:0d, BSSID=00:00:00:00:00:0f, FragNumber=0, SeqNumber=0) ns3::MgtAssocRequestHeader (ssid=ns-3-ssid , rates=[6mbs 9mbs 12mbs 18mbs 24mbs 36mbs 48mbs 54mbs] , rates=[0mbs] , HT Capabilities=0|1|0|1 1 1 1 1 1 1 1 0 0 0 0 0 0 0 0 0 0 0 0 0 0 0 0 0 0 0 0 0 0 0 0 0 0 0 0 0 0 0 0 0 0 0 0 0 0 0 0 0 0 0 0 0 0 0 0 0 0 0 0 0 0 0 0 0 0 0 0 0 0 0 0 0 0 0 0 0  , Extended Capabilities=0 , VHT Capabilities=25165828|219831948272271358 , HE Capabilities=0|0|12|0|0|32 , ) 
r 0.120735 OfdmRate6Mbps /NodeList/7/DeviceList/0/$ns3::WifiNetDevice/Phy/State/RxOk ns3::WifiMacHeader (MGT_ASSOCIATION_REQUEST ToDS=0, FromDS=0, MoreFrag=0, Retry=1, PowerManagement=0, MoreData=0 Duration/ID=1880us, DA=00:00:00:00:00:0f, SA=00:00:00:00:00:0d, BSSID=00:00:00:00:00:0f, FragNumber=0, SeqNumber=0) ns3::MgtAssocRequestHeader (ssid=ns-3-ssid , rates=[6mbs 9mbs 12mbs 18mbs 24mbs 36mbs 48mbs 54mbs] , rates=[0mbs] , HT Capabilities=0|1|0|1 1 1 1 1 1 1 1 0 0 0 0 0 0 0 0 0 0 0 0 0 0 0 0 0 0 0 0 0 0 0 0 0 0 0 0 0 0 0 0 0 0 0 0 0 0 0 0 0 0 0 0 0 0 0 0 0 0 0 0 0 0 0 0 0 0 0 0 0 0 0 0 0 0 0 0 0  , Extended Capabilities=0 , VHT Capabilities=25165828|219831948272271358 , HE Capabilities=0|0|12|0|0|32 , ) 
r 0.120735 OfdmRate6Mbps /NodeList/9/DeviceList/0/$ns3::WifiNetDevice/Phy/State/RxOk ns3::WifiMacHeader (MGT_ASSOCIATION_REQUEST ToDS=0, FromDS=0, MoreFrag=0, Retry=1, PowerManagement=0, MoreData=0 Duration/ID=1880us, DA=00:00:00:00:00:0f, SA=00:00:00:00:00:0d, BSSID=00:00:00:00:00:0f, FragNumber=0, SeqNumber=0) ns3::MgtAssocRequestHeader (ssid=ns-3-ssid , rates=[6mbs 9mbs 12mbs 18mbs 24mbs 36mbs 48mbs 54mbs] , rates=[0mbs] , HT Capabilities=0|1|0|1 1 1 1 1 1 1 1 0 0 0 0 0 0 0 0 0 0 0 0 0 0 0 0 0 0 0 0 0 0 0 0 0 0 0 0 0 0 0 0 0 0 0 0 0 0 0 0 0 0 0 0 0 0 0 0 0 0 0 0 0 0 0 0 0 0 0 0 0 0 0 0 0 0 0 0 0  , Extended Capabilities=0 , VHT Capabilities=25165828|219831948272271358 , HE Capabilities=0|0|12|0|0|32 , ) 
t 0.120751 /NodeList/0/DeviceList/1/$ns3::WifiNetDevice/Phy/State/Tx OfdmRate6Mbps ns3::WifiMacHeader (CTL_ACK Duration/ID=1820us, RA=00:00:00:00:00:0d) 