t 0.033761 /NodeList/0/DeviceList/1/$ns3::WifiNetDevice/Phy/State/Tx OfdmRate6Mbps ns3::WifiMacHeader (MGT_BEACON ToDS=0, FromDS=0, MoreFrag=0, Retry=0, PowerManagement=0, MoreData=0 Duration/ID=0us, DA=ff:ff:ff:ff:ff:ff, SA=00:00:00:00:00:0a, BSSID=00:00:00:00:00:0a, FragNumber=0, SeqNumber=0) ns3::MgtProbeResponseHeader (ssid=ns-3-ssid , rates=[*6mbs 9mbs *12mbs 18mbs *24mbs 36mbs 48mbs 54mbs] , rates=[0mbs] ,  , HT Capabilities=0|1|0|1 1 1 1 1 1 1 1 0 0 0 0 0 0 0 0 0 0 0 0 0 0 0 0 0 0 0 0 0 0 0 0 0 0 0 0 0 0 0 0 0 0 0 0 0 0 0 0 0 0 0 0 0 0 0 0 0 0 0 0 0 0 0 0 0 0 0 0 0 0 0 0 0 0 0 0 0  , HT Operation=1|1|1|0|0|1|0|0|0|0|0|0|0|65|1|0|0|0|1 0 0 0 0 0 0 0 0 0 0 0 0 0 0 0 0 0 0 0 0 0 0 0 0 0 0 0 0 0 0 0 0 0 0 0 0 0 0 0 0 0 0 0 0 0 0 0 0 0 0 0 0 0 0 0 0 0 0 0 0 0 0 0 0 0 0 0 0 0 0 0 0 0 0 0 0  , Extended Capabilities=0 , VHT Capabilities=25165828|219831948272271358 , VHT Operation=1|42|0|2 , HE Capabilities=0|0|12|0|0|32 , HE Operation=[HE Operation Parameters|Default PE Duration: 0 TWT Required: 0 TXOP Duration RTS Threshold: 0 VHT Operation Information Present: 0 Co-Hosted BSS: 0 ER SU Disable: 0 6 GHz Operation Information Present: 0][BSS Color|BSS Color: 0 Partial BSS Color: 0 BSS Color Disabled: 0][Basic HE-MCS And NSS Set: 65534] , ) 
r 0.034053 OfdmRate6Mbps /NodeList/5/DeviceList/0/$ns3::WifiNetDevice/Phy/State/RxOk ns3::WifiMacHeader (MGT_BEACON ToDS=0, FromDS=0, MoreFrag=0, Retry=0, PowerManagement=0, MoreData=0 Duration/ID=0us, DA=ff:ff:ff:ff:ff:ff, SA=00:00:00:00:00:0a, BSSID=00:00:00:00:00:0a, FragNumber=0, SeqNumber=0) ns3::MgtProbeResponseHeader (ssid=ns-3-ssid , rates=[*6mbs 9mbs *12mbs 18mbs *24mbs 36mbs 48mbs 54mbs] , rates=[0mbs] ,  , HT Capabilities=0|1|0|1 1 1 1 1 1 1 1 0 0 0 0 0 0 0 0 0 0 0 0 0 0 0 0 0 0 0 0 0 0 0 0 0 0 0 0 0 0 0 0 0 0 0 0 0 0 0 0 0 0 0 0 0 0 0 0 0 0 0 0 0 0 0 0 0 0 0 0 0 0 0 0 0 0 0 0 0  , HT Operation=1|1|1|0|0|1|0|0|0|0|0|0|0|65|1|0|0|0|1 0 0 0 0 0 0 0 0 0 0 0 0 0 0 0 0 0 0 0 0 0 0 0 0 0 0 0 0 0 0 0 0 0 0 0 0 0 0 0 0 0 0 0 0 0 0 0 0 0 0 0 0 0 0 0 0 0 0 0 0 0 0 0 0 0 0 0 0 0 0 0 0 0 0 0 0  , Extended Capabilities=0 , VHT Capabilities=25165828|219831948272271358 , VHT Operation=1|42|0|2 , HE Capabilities=0|0|12|0|0|32 , HE Operation=[HE Operation Parameters|Default PE Duration: 0 TWT Required: 0 TXOP Duration RTS Threshold: 0 VHT Operation Information Present: 0 Co-Hosted BSS: 0 ER SU Disable: 0 6 GHz Operation Information Present: 0][BSS Color|BSS Color: 0 Partial BSS Color: 0 BSS Color Disabled: 0][Basic HE-MCS And NSS Set: 65534] , ) 
r 0.034053 OfdmRate6Mbps /NodeList/6/DeviceList/0/$ns3::WifiNetDevice/Phy/State/RxOk ns3::WifiMacHeader (MGT_BEACON ToDS=0, FromDS=0, MoreFrag=0, Retry=0, PowerManagement=0, MoreData=0 Duration/ID=0us, DA=ff:ff:ff:ff:ff:ff, SA=00:00:00:00:00:0a, BSSID=00:00:00:00:00:0a, FragNumber=0, SeqNumber=0) ns3::MgtProbeResponseHeader (ssid=ns-3-ssid , rates=[*6mbs 9mbs *12mbs 18mbs *24mbs 36mbs 48mbs 54mbs] , rates=[0mbs] ,  , HT Capabilities=0|1|0|1 1 1 1 1 1 1 1 0 0 0 0 0 0 0 0 0 0 0 0 0 0 0 0 0 0 0 0 0 0 0 0 0 0 0 0 0 0 0 0 0 0 0 0 0 0 0 0 0 0 0 0 0 0 0 0 0 0 0 0 0 0 0 0 0 0 0 0 0 0 0 0 0 0 0 0 0  , HT Operation=1|1|1|0|0|1|0|0|0|0|0|0|0|65|1|0|0|0|1 0 0 0 0 0 0 0 0 0 0 0 0 0 0 0 0 0 0 0 0 0 0 0 0 0 0 0 0 0 0 0 0 0 0 0 0 0 0 0 0 0 0 0 0 0 0 0 0 0 0 0 0 0 0 0 0 0 0 0 0 0 0 0 0 0 0 0 0 0 0 0 0 0 0 0 0  , Extended Capabilities=0 , VHT Capabilities=25165828|219831948272271358 , VHT Operation=1|42|0|2 , HE Capabilities=0|0|12|0|0|32 , HE Operation=[HE Operation Parameters|Default PE Duration: 0 TWT Required: 0 TXOP Duration RTS Threshold: 0 VHT Operation Information Present: 0 Co-Hosted BSS: 0 ER SU Disable: 0 6 GHz Operation Information Present: 0][BSS Color|BSS Color: 0 Partial BSS Color: 0 BSS Color Disabled: 0][Basic HE-MCS And NSS Set: 65534] , ) 
r 0.034053 OfdmRate6Mbps /NodeList/7/DeviceList/0/$ns3::WifiNetDevice/Phy/State/RxOk ns3::WifiMacHeader (MGT_BEACON ToDS=0, FromDS=0, MoreFrag=0, Retry=0, PowerManagement=0, MoreData=0 Duration/ID=0us, DA=ff:ff:ff:ff:ff:ff, SA=00:00:00:00:00:0a, BSSID=00:00:00:00:00:0a, FragNumber=0, SeqNumber=0) ns3::MgtProbeResponseHeader (ssid=ns-3-ssid , rates=[*6mbs 9mbs *12mbs 18mbs *24mbs 36mbs 48mbs 54mbs] , rates=[0mbs] ,  , HT Capabilities=0|1|0|1 1 1 1 1 1 1 1 0 0 0 0 0 0 0 0 0 0 0 0 0 0 0 0 0 0 0 0 0 0 0 0 0 0 0 0 0 0 0 0 0 0 0 0 0 0 0 0 0 0 0 0 0 0 0 0 0 0 0 0 0 0 0 0 0 0 0 0 0 0 0 0 0 0 0 0 0  , HT Operation=1|1|1|0|0|1|0|0|0|0|0|0|0|65|1|0|0|0|1 0 0 0 0 0 0 0 0 0 0 0 0 0 0 0 0 0 0 0 0 0 0 0 0 0 0 0 0 0 0 0 0 0 0 0 0 0 0 0 0 0 0 0 0 0 0 0 0 0 0 0 0 0 0 0 0 0 0 0 0 0 0 0 0 0 0 0 0 0 0 0 0 0 0 0 0  , Extended Capabilities=0 , VHT Capabilities=25165828|219831948272271358 , VHT Operation=1|42|0|2 , HE Capabilities=0|0|12|0|0|32 , HE Operation=[HE Operation Parameters|Default PE Duration: 0 TWT Required: 0 TXOP Duration RTS Threshold: 0 VHT Operation Information Present: 0 Co-Hosted BSS: 0 ER SU Disable: 0 6 GHz Operation Information Present: 0][BSS Color|BSS Color: 0 Partial BSS Color: 0 BSS Color Disabled: 0][Basic HE-MCS And NSS Set: 65534] , ) 
t 0.120001 /NodeList/5/DeviceList/0/$ns3::WifiNetDevice/Phy/State/Tx OfdmRate6Mbps ns3::WifiMacHeader (MGT_ASSOCIATION_REQUEST ToDS=0, FromDS=0, MoreFrag=0, Retry=0, PowerManagement=0, MoreData=0 Duration/ID=1880us, DA=00:00:00:00:00:0a, SA=00:00:00:00:00:07, BSSID=00:00:00:00:00:0a, FragNumber=0, SeqNumber=0) ns3::MgtAssocRequestHeader (ssid=ns-3-ssid , rates=[6mbs 9mbs 12mbs 18mbs 24mbs 36mbs 48mbs 54mbs] , rates=[0mbs] , HT Capabilities=0|1|0|1 1 1 1 1 1 1 1 0 0 0 0 0 0 0 0 0 0 0 0 0 0 0 0 0 0 0 0 0 0 0 0 0 0 0 0 0 0 0 0 0 0 0 0 0 0 0 0 0 0 0 0 0 0 0 0 0 0 0 0 0 0 0 0 0 0 0 0 0 0 0 0 0 0 0 0 0  , Extended Capabilities=0 , VHT Capabilities=25165828|219831948272271358 , HE Capabilities=0|0|12|0|0|32 , ) 
t 0.120001 /NodeList/6/DeviceList/0/$ns3::WifiNetDevice/Phy/State/Tx OfdmRate6Mbps ns3::WifiMacHeader (MGT_ASSOCIATION_REQUEST ToDS=0, FromDS=0, MoreFrag=0, Retry=0, PowerManagement=0, MoreData=0 Duration/ID=1880us, DA=00:00:00:00:00:0a, SA=00:00:00:00:00:08, BSSID=00:00:00:00:00:0a, FragNumber=0, SeqNumber=0) ns3::MgtAssocRequestHeader (ssid=ns-3-ssid , rates=[6mbs 9mbs 12mbs 18mbs 24mbs 36mbs 48mbs 54mbs] , rates=[0mbs] , HT Capabilities=0|1|0|1 1 1 1 1 1 1 1 0 0 0 0 0 0 0 0 0 0 0 0 0 0 0 0 0 0 0 0 0 0 0 0 0 0 0 0 0 0 0 0 0 0 0 0 0 0 0 0 0 0 0 0 0 0 0 0 0 0 0 0 0 0 0 0 0 0 0 0 0 0 0 0 0 0 0 0 0  , Extended Capabilities=0 , VHT Capabilities=25165828|219831948272271358 , HE Capabilities=0|0|12|0|0|32 , ) 
t 0.120001 /NodeList/7/DeviceList/0/$ns3::WifiNetDevice/Phy/State/Tx OfdmRate6Mbps ns3::WifiMacHeader (MGT_ASSOCIATION_REQUEST ToDS=0, FromDS=0, MoreFrag=0, Retry=0, PowerManagement=0, MoreData=0 Duration/ID=1880us, DA=00:00:00:00:00:0a, SA=00:00:00:00:00:09, BSSID=00:00:00:00:00:0a, FragNumber=0, SeqNumber=0) ns3::MgtAssocRequestHeader (ssid=ns-3-ssid , rates=[6mbs 9mbs 12mbs 18mbs 24mbs 36mbs 48mbs 54mbs] , rates=[0mbs] , HT Capabilities=0|1|0|1 1 1 1 1 1 1 1 0 0 0 0 0 0 0 0 0 0 0 0 0 0 0 0 0 0 0 0 0 0 0 0 0 0 0 0 0 0 0 0 0 0 0 0 0 0 0 0 0 0 0 0 0 0 0 0 0 0 0 0 0 0 0 0 0 0 0 0 0 0 0 0 0 0 0 0 0  , Extended Capabilities=0 , VHT Capabilities=25165828|219831948272271358 , HE Capabilities=0|0|12|0|0|32 , ) 
t 0.120316 /NodeList/5/DeviceList/0/$ns3::WifiNetDevice/Phy/State/Tx OfdmRate6Mbps ns3::WifiMacHeader (MGT_ASSOCIATION_REQUEST ToDS=0, FromDS=0, MoreFrag=0, Retry=1, PowerManagement=0, MoreData=0 Duration/ID=1880us, DA=00:00:00:00:00:0a, SA=00:00:00:00:00:07, BSSID=00:00:00:00:00:0a, FragNumber=0, SeqNumber=0) ns3::MgtAssocRequestHeader (ssid=ns-3-ssid , rates=[6mbs 9mbs 12mbs 18mbs 24mbs 36mbs 48mbs 54mbs] , rates=[0mbs] , HT Capabilities=0|1|0|1 1 1 1 1 1 1 1 0 0 0 0 0 0 0 0 0 0 0 0 0 0 0 0 0 0 0 0 0 0 0 0 0 0 0 0 0 0 0 0 0 0 0 0 0 0 0 0 0 0 0 0 0 0 0 0 0 0 0 0 0 0 0 0 0 0 0 0 0 0 0 0 0 0 0 0 0  , Extended Capabilities=0 , VHT Capabilities=25165828|219831948272271358 , HE Capabilities=0|0|12|0|0|32 , ) 
r 0.120516 OfdmRate6Mbps /NodeList/6/DeviceList/0/$ns3::WifiNetDevice/Phy/State/RxOk ns3::WifiMacHeader (MGT_ASSOCIATION_REQUEST ToDS=0, FromDS=0, MoreFrag=0, Retry=1, PowerManagement=0, MoreData=0 Duration/ID=1880us, DA=00:00:00:00:00:0a, SA=00:00:00:00:00:07, BSSID=00:00:00:00:00:0a, FragNumber=0, SeqNumber=0) ns3::MgtAssocRequestHeader (ssid=ns-3-ssid , rates=[6mbs 9mbs 12mbs 18mbs 24mbs 36mbs 48mbs 54mbs] , rates=[0mbs] , HT Capabilities=0|1|0|1 1 1 1 1 1 1 1 0 0 0 0 0 0 0 0 0 0 0 0 0 0 0 0 0 0 0 0 0 0 0 0 0 0 0 0 0 0 0 0 0 0 0 0 0 0 0 0 0 0 0 0 0 0 0 0 0 0 0 0 0 0 0 0 0 0 0 0 0 0 0 0 0 0 0 0 0  , Extended Capabilities=0 , VHT Capabilities=25165828|219831948272271358 , HE Capabilities=0|0|12|0|0|32 , ) 
r 0.120516 OfdmRate6Mbps /NodeList/0/DeviceList/1/$ns3::WifiNetDevice/Phy/State/RxOk ns3::WifiMacHeader (MGT_ASSOCIATION_REQUEST ToDS=0, FromDS=0, MoreFrag=0, Retry=1, PowerManagement=0, MoreData=0 Duration/ID=1880us, DA=00:00:00:00:00:0a, SA=00:00:00:00:00:07, BSSID=00:00:00:00:00:0a, FragNumber=0, SeqNumber=0) ns3::MgtAssocRequestHeader (ssid=ns-3-ssid , rates=[6mbs 9mbs 12mbs 18mbs 24mbs 36mbs 48mbs 54mbs] , rates=[0mbs] , HT Capabilities=0|1|0|1 1 1 1 1 1 1 1 0 0 0 0 0 0 0 0 0 0 0 0 0 0 0 0 0 0 0 0 0 0 0 0 0 0 0 0 0 0 0 0 0 0 0 0 0 0 0 0 0 0 0 0 0 0 0 0 0 0 0 0 0 0 0 0 0 0 0 0 0 0 0 0 0 0 0 0 0  , Extended Capabilities=0 , VHT Capabilities=25165828|219831948272271358 , HE Capabilities=0|0|12|0|0|32 , ) 
r 0.120516 OfdmRate6Mbps /NodeList/7/DeviceList/0/$ns3::WifiNetDevice/Phy/State/RxOk ns3::WifiMacHeader (MGT_ASSOCIATION_REQUEST ToDS=0, FromDS=0, MoreFrag=0, Retry=1, PowerManagement=0, MoreData=0 Duration/ID=1880us, DA=00:00:00:00:00:0a, SA=00:00:00:00:00:07, BSSID=00:00:00:00:00:0a, FragNumber=0, SeqNumber=0) ns3::MgtAssocRequestHeader (ssid=ns-3-ssid , rates=[6mbs 9mbs 12mbs 18mbs 24mbs 36mbs 48mbs 54mbs] , rates=[0mbs] , HT Capabilities=0|1|0|1 1 1 1 1 1 1 1 0 0 0 0 0 0 0 0 0 0 0 0 0 0 0 0 0 0 0 0 0 0 0 0 0 0 0 0 0 0 0 0 0 0 0 0 0 0 0 0 0 0 0 0 0 0 0 0 0 0 0 0 0 0 0 0 0 0 0 0 0 0 0 0 0 0 0 0 0  , Extended Capabilities=0 , VHT Capabilities=25165828|219831948272271358 , HE Capabilities=0|0|12|0|0|32 , ) 
t 0.120532 /NodeList/0/DeviceList/1/$ns3::WifiNetDevice/Phy/State/Tx OfdmRate6Mbps ns3::WifiMacHeader (CTL_ACK Duration/ID=1820us, RA=00:00:00:00:00:07) 
r 0.120576 OfdmRate6Mbps /NodeList/5/DeviceList/0/$ns3::WifiNetDevice/Phy/State/RxOk ns3::WifiMacHeader (CTL_ACK Duration/ID=1820us, RA=00:00:00:00:00:07) 
r 0.120576 OfdmRate6Mbps /NodeList/6/DeviceList/0/$ns3::WifiNetDevice/Phy/State/RxOk ns3::WifiMacHeader (CTL_ACK Duration/ID=1820us, RA=00:00:00:00:00:07) 
r 0.120576 OfdmRate6Mbps /NodeList/7/DeviceList/0/$ns3::WifiNetDevice/Phy/State/RxOk ns3::WifiMacHeader (CTL_ACK Duration/ID=1820us, RA=00:00:00:00:00:07) 
t 0.120592 /NodeList/5/DeviceList/0/$ns3::WifiNetDevice/Phy/State/Tx OfdmRate6Mbps ns3::WifiMacHeader (CTL_END ) 
r 0.120644 OfdmRate6Mbps /NodeList/6/DeviceList/0/$ns3::WifiNetDevice/Phy/State/RxOk ns3::WifiMacHeader (CTL_END ) 
r 0.120644 OfdmRate6Mbps /NodeList/0/DeviceList/1/$ns3::WifiNetDevice/Phy/State/RxOk ns3::WifiMacHeader (CTL_END ) 
r 0.120644 OfdmRate6Mbps /NodeList/7/DeviceList/0/$ns3::WifiNetDevice/Phy/State/RxOk ns3::WifiMacHeader (CTL_END ) 
t 0.120678 /NodeList/0/DeviceList/1/$ns3::WifiNetDevice/Phy/State/Tx OfdmRate6Mbps ns3::WifiMacHeader (MGT_ASSOCIATION_RESPONSE ToDS=0, FromDS=0, MoreFrag=0, Retry=0, PowerManagement=0, MoreData=0 Duration/ID=1812us, DA=00:00:00:00:00:07, SA=00:00:00:00:00:0a, BSSID=00:00:00:00:00:0a, FragNumber=0, SeqNumber=1) ns3::MgtAssocResponseHeader (status code=success, aid=1, rates=[*6mbs 9mbs *12mbs 18mbs *24mbs 36mbs 48mbs 54mbs] , rates=[0mbs] ,  , HT Capabilities=0|1|0|1 1 1 1 1 1 1 1 0 0 0 0 0 0 0 0 0 0 0 0 0 0 0 0 0 0 0 0 0 0 0 0 0 0 0 0 0 0 0 0 0 0 0 0 0 0 0 0 0 0 0 0 0 0 0 0 0 0 0 0 0 0 0 0 0 0 0 0 0 0 0 0 0 0 0 0 0  , HT Operation=1|1|1|0|0|1|0|0|0|0|0|0|0|65|1|0|0|0|1 0 0 0 0 0 0 0 0 0 0 0 0 0 0 0 0 0 0 0 0 0 0 0 0 0 0 0 0 0 0 0 0 0 0 0 0 0 0 0 0 0 0 0 0 0 0 0 0 0 0 0 0 0 0 0 0 0 0 0 0 0 0 0 0 0 0 0 0 0 0 0 0 0 0 0 0  , Extended Capabilities=0 , VHT Capabilities=25165828|219831948272271358 , VHT Operation=1|42|0|2 , HE Capabilities=0|0|12|0|0|32 , HE Operation=[HE Operation Parameters|Default PE Duration: 0 TWT Required: 0 TXOP Duration RTS Threshold: 0 VHT Operation Information Present: 0 Co-Hosted BSS: 0 ER SU Disable: 0 6 GHz Operation Information Present: 0][BSS Color|BSS Color: 0 Partial BSS Color: 0 BSS Color Disabled: 0][Basic HE-MCS And NSS Set: 65534] , ) 
t 0.120678 /NodeList/7/DeviceList/0/$ns3::WifiNetDevice/Phy/State/Tx OfdmRate6Mbps ns3::WifiMacHeader (MGT_ASSOCIATION_REQUEST ToDS=0, FromDS=0, MoreFrag=0, Retry=1, PowerManagement=0, MoreData=0 Duration/ID=1880us, DA=00:00:00:00:00:0a, SA=00:00:00:00:00:09, BSSID=00:00:00:00:00:0a, FragNumber=0, SeqNumber=0) ns3::MgtAssocRequestHeader (ssid=ns-3-ssid , rates=[6mbs 9mbs 12mbs 18mbs 24mbs 36mbs 48mbs 54mbs] , rates=[0mbs] , HT Capabilities=0|1|0|1 1 1 1 1 1 1 1 0 0 0 0 0 0 0 0 0 0 0 0 0 0 0 0 0 0 0 0 0 0 0 0 0 0 0 0 0 0 0 0 0 0 0 0 0 0 0 0 0 0 0 0 0 0 0 0 0 0 0 0 0 0 0 0 0 0 0 0 0 0 0 0 0 0 0 0 0  , Extended Capabilities=0 , VHT Capabilities=25165828|219831948272271358 , HE Capabilities=0|0|12|0|0|32 , ) 
r 0.120878 OfdmRate6Mbps /NodeList/6/DeviceList/0/$ns3::WifiNetDevice/Phy/State/RxOk ns3::WifiMacHeader (MGT_ASSOCIATION_REQUEST ToDS=0, FromDS=0, MoreFrag=0, Retry=1, PowerManagement=0, MoreData=0 Duration/ID=1880us, DA=00:00:00:00:00:0a, SA=00:00:00:00:00:09, BSSID=00:00:00:00:00:0a, FragNumber=0, SeqNumber=0) ns3::MgtAssocRequestHeader (ssid=ns-3-ssid , rates=[6mbs 9mbs 12mbs 18mbs 24mbs 36mbs 48mbs 54mbs] , rates=[0mbs] , HT Capabilities=0|1|0|1 1 1 1 1 1 1 1 0 0 0 0 0 0 0 0 0 0 0 0 0 0 0 0 0 0 0 0 0 0 0 0 0 0 0 0 0 0 0 0 0 0 0 0 0 0 0 0 0 0 0 0 0 0 0 0 0 0 0 0 0 0 0 0 0 0 0 0 0 0 0 0 0 0 0 0 0  , Extended Capabilities=0 , VHT Capabilities=25165828|219831948272271358 , HE Capabilities=0|0|12|0|0|32 , ) 
t 0.120984 /NodeList/7/DeviceList/0/$ns3::WifiNetDevice/Phy/State/Tx OfdmRate6Mbps ns3::WifiMacHeader (MGT_ASSOCIATION_REQUEST ToDS=0, FromDS=0, MoreFrag=0, Retry=1, PowerManagement=0, MoreData=0 Duration/ID=1880us, DA=00:00:00:00:00:0a, SA=00:00:00:00:00:09, BSSID=00:00:00:00:00:0a, FragNumber=0, SeqNumber=0) ns3::MgtAssocRequestHeader (ssid=ns-3-ssid , rates=[6mbs 9mbs 12mbs 18mbs 24mbs 36mbs 48mbs 54mbs] , rates=[0mbs] , HT Capabilities=0|1|0|1 1 1 1 1 1 1 1 0 0 0 0 0 0 0 0 0 0 0 0 0 0 0 0 0 0 0 0 0 0 0 0 0 0 0 0 0 0 0 0 0 0 0 0 0 0 0 0 0 0 0 0 0 0 0 0 0 0 0 0 0 0 0 0 0 0 0 0 0 0 0 0 0 0 0 0 0  , Extended Capabilities=0 , VHT Capabilities=25165828|219831948272271358 , HE Capabilities=0|0|12|0|0|32 , ) 
r 0.121184 OfdmRate6Mbps /NodeList/6/DeviceList/0/$ns3::WifiNetDevice/Phy/State/RxOk ns3::WifiMacHeader (MGT_ASSOCIATION_REQUEST ToDS=0, FromDS=0, MoreFrag=0, Retry=1, PowerManagement=0, MoreData=0 Duration/ID=1880us, DA=00:00:00:00:00:0a, SA=00:00:00:00:00:09, BSSID=00:00:00:00:00:0a, FragNumber=0, SeqNumber=0) ns3::MgtAssocRequestHeader (ssid=ns-3-ssid , rates=[6mbs 9mbs 12mbs 18mbs 24mbs 36mbs 48mbs 54mbs] , rates=[0mbs] , HT Capabilities=0|1|0|1 1 1 1 1 1 1 1 0 0 0 0 0 0 0 0 0 0 0 0 0 0 0 0 0 0 0 0 0 0 0 0 0 0 0 0 0 0 0 0 0 0 0 0 0 0 0 0 0 0 0 0 0 0 0 0 0 0 0 0 0 0 0 0 0 0 0 0 0 0 0 0 0 0 0 0 0  , Extended Capabilities=0 , VHT Capabilities=25165828|219831948272271358 , HE Capabilities=0|0|12|0|0|32 , ) 
r 0.121184 OfdmRate6Mbps /NodeList/5/DeviceList/0/$ns3::WifiNetDevice/Phy/State/RxOk ns3::WifiMacHeader (MGT_ASSOCIATION_REQUEST ToDS=0, FromDS=0, MoreFrag=0, Retry=1, PowerManagement=0, MoreData=0 Duration/ID=1880us, DA=00:00:00:00:00:0a, SA=00:00:00:00:00:09, BSSID=00:00:00:00:00:0a, FragNumber=0, SeqNumber=0) ns3::MgtAssocRequestHeader (ssid=ns-3-ssid , rates=[6mbs 9mbs 12mbs 18mbs 24mbs 36mbs 48mbs 54mbs] , rates=[0mbs] , HT Capabilities=0|1|0|1 1 1 1 1 1 1 1 0 0 0 0 0 0 0 0 0 0 0 0 0 0 0 0 0 0 0 0 0 0 0 0 0 0 0 0 0 0 0 0 0 0 0 0 0 0 0 0 0 0 0 0 0 0 0 0 0 0 0 0 0 0 0 0 0 0 0 0 0 0 0 0 0 0 0 0 0  , Extended Capabilities=0 , VHT Capabilities=25165828|219831948272271358 , HE Capabilities=0|0|12|0|0|32 , ) 
r 0.121184 OfdmRate6Mbps /NodeList/0/DeviceList/1/$ns3::WifiNetDevice/Phy/State/RxOk ns3::WifiMacHeader (MGT_ASSOCIATION_REQUEST ToDS=0, FromDS=0, MoreFrag=0, Retry=1, PowerManagement=0, MoreData=0 Duration/ID=1880us, DA=00:00:00:00:00:0a, SA=00:00:00:00:00:09, BSSID=00:00:00:00:00:0a, FragNumber=0, SeqNumber=0) ns3::MgtAssocRequestHeader (ssid=ns-3-ssid , rates=[6mbs 9mbs 12mbs 18mbs 24mbs 36mbs 48mbs 54mbs] , rates=[0mbs] , HT Capabilities=0|1|0|1 1 1 1 1 1 1 1 0 0 0 0 0 0 0 0 0 0 0 0 0 0 0 0 0 0 0 0 0 0 0 0 0 0 0 0 0 0 0 0 0 0 0 0 0 0 0 0 0 0 0 0 0 0 0 0 0 0 0 0 0 0 0 0 0 0 0 0 0 0 0 0 0 0 0 0 0  , Extended Capabilities=0 , VHT Capabilities=25165828|219831948272271358 , HE Capabilities=0|0|12|0|0|32 , ) 
t 0.1212 /NodeList/0/DeviceList/1/$ns3::WifiNetDevice/Phy/State/Tx OfdmRate6Mbps ns3::WifiMacHeader (CTL_ACK Duration/ID=1820us, RA=00:00:00:00:00:09) 
r 0.121244 OfdmRate6Mbps /NodeList/5/DeviceList/0/$ns3::WifiNetDevice/Phy/State/RxOk ns3::WifiMacHeader (CTL_ACK Duration/ID=1820us, RA=00:00:00:00:00:09) 
r 0.121244 OfdmRate6Mbps /NodeList/6/DeviceList/0/$ns3::WifiNetDevice/Phy/State/RxOk ns3::WifiMacHeader (CTL_ACK Duration/ID=1820us, RA=00:00:00:00:00:09) 
r 0.121244 OfdmRate6Mbps /NodeList/7/DeviceList/0/$ns3::WifiNetDevice/Phy/State/RxOk ns3::WifiMacHeader (CTL_ACK Duration/ID=1820us, RA=00:00:00:00:00:09) 
t 0.12126 /NodeList/7/DeviceList/0/$ns3::WifiNetDevice/Phy/State/Tx OfdmRate6Mbps ns3::WifiMacHeader (CTL_END ) 
r 0.121312 OfdmRate6Mbps /NodeList/6/DeviceList/0/$ns3::WifiNetDevice/Phy/State/RxOk ns3::WifiMacHeader (CTL_END ) 
r 0.121312 OfdmRate6Mbps /NodeList/5/DeviceList/0/$ns3::WifiNetDevice/Phy/State/RxOk ns3::WifiMacHeader (CTL_END ) 
r 0.121312 OfdmRate6Mbps /NodeList/0/DeviceList/1/$ns3::WifiNetDevice/Phy/State/RxOk ns3::WifiMacHeader (CTL_END ) 
t 0.121346 /NodeList/6/DeviceList/0/$ns3::WifiNetDevice/Phy/State/Tx OfdmRate6Mbps ns3::WifiMacHeader (MGT_ASSOCIATION_REQUEST ToDS=0, FromDS=0, MoreFrag=0, Retry=1, PowerManagement=0, MoreData=0 Duration/ID=1880us, DA=00:00:00:00:00:0a, SA=00:00:00:00:00:08, BSSID=00:00:00:00:00:0a, FragNumber=0, SeqNumber=0) ns3::MgtAssocRequestHeader (ssid=ns-3-ssid , rates=[6mbs 9mbs 12mbs 18mbs 24mbs 36mbs 48mbs 54mbs] , rates=[0mbs] , HT Capabilities=0|1|0|1 1 1 1 1 1 1 1 0 0 0 0 0 0 0 0 0 0 0 0 0 0 0 0 0 0 0 0 0 0 0 0 0 0 0 0 0 0 0 0 0 0 0 0 0 0 0 0 0 0 0 0 0 0 0 0 0 0 0 0 0 0 0 0 0 0 0 0 0 0 0 0 0 0 0 0 0  , Extended Capabilities=0 , VHT Capabilities=25165828|219831948272271358 , HE Capabilities=0|0|12|0|0|32 , ) 
r 0.121546 OfdmRate6Mbps /NodeList/7/DeviceList/0/$ns3::WifiNetDevice/Phy/State/RxOk ns3::WifiMacHeader (MGT_ASSOCIATION_REQUEST ToDS=0, FromDS=0, MoreFrag=0, Retry=1, PowerManagement=0, MoreData=0 Duration/ID=1880us, DA=00:00:00:00:00:0a, SA=00:00:00:00:00:08, BSSID=00:00:00:00:00:0a, FragNumber=0, SeqNumber=0) ns3::MgtAssocRequestHeader (ssid=ns-3-ssid , rates=[6mbs 9mbs 12mbs 18mbs 24mbs 36mbs 48mbs 54mbs] , rates=[0mbs] , HT Capabilities=0|1|0|1 1 1 1 1 1 1 1 0 0 0 0 0 0 0 0 0 0 0 0 0 0 0 0 0 0 0 0 0 0 0 0 0 0 0 0 0 0 0 0 0 0 0 0 0 0 0 0 0 0 0 0 0 0 0 0 0 0 0 0 0 0 0 0 0 0 0 0 0 0 0 0 0 0 0 0 0  , Extended Capabilities=0 , VHT Capabilities=25165828|219831948272271358 , HE Capabilities=0|0|12|0|0|32 , ) 
r 0.121546 OfdmRate6Mbps /NodeList/5/DeviceList/0/$ns3::WifiNetDevice/Phy/State/RxOk ns3::WifiMacHeader (MGT_ASSOCIATION_REQUEST ToDS=0, FromDS=0, MoreFrag=0, Retry=1, PowerManagement=0, MoreData=0 Duration/ID=1880us, DA=00:00:00:00:00:0a, SA=00:00:00:00:00:08, BSSID=00:00:00:00:00:0a, FragNumber=0, SeqNumber=0) ns3::MgtAssocRequestHeader (ssid=ns-3-ssid , rates=[6mbs 9mbs 12mbs 18mbs 24mbs 36mbs 48mbs 54mbs] , rates=[0mbs] , HT Capabilities=0|1|0|1 1 1 1 1 1 1 1 0 0 0 0 0 0 0 0 0 0 0 0 0 0 0 0 0 0 0 0 0 0 0 0 0 0 0 0 0 0 0 0 0 0 0 0 0 0 0 0 0 0 0 0 0 0 0 0 0 0 0 0 0 0 0 0 0 0 0 0 0 0 0 0 0 0 0 0 0  , Extended Capabilities=0 , VHT Capabilities=25165828|219831948272271358 , HE Capabilities=0|0|12|0|0|32 , ) 
r 0.121546 OfdmRate6Mbps /NodeList/0/DeviceList/1/$ns3::WifiNetDevice/Phy/State/RxOk ns3::WifiMacHeader (MGT_ASSOCIATION_REQUEST ToDS=0, FromDS=0, MoreFrag=0, Retry=1, PowerManagement=0, MoreData=0 Duration/ID=1880us, DA=00:00:00:00:00:0a, SA=00:00:00:00:00:08, BSSID=00:00:00:00:00:0a, FragNumber=0, SeqNumber=0) ns3::MgtAssocRequestHeader (ssid=ns-3-ssid , rates=[6mbs 9mbs 12mbs 18mbs 24mbs 36mbs 48mbs 54mbs] , rates=[0mbs] , HT Capabilities=0|1|0|1 1 1 1 1 1 1 1 0 0 0 0 0 0 0 0 0 0 0 0 0 0 0 0 0 0 0 0 0 0 0 0 0 0 0 0 0 0 0 0 0 0 0 0 0 0 0 0 0 0 0 0 0 0 0 0 0 0 0 0 0 0 0 0 0 0 0 0 0 0 0 0 0 0 0 0 0  , Extended Capabilities=0 , VHT Capabilities=25165828|219831948272271358 , HE Capabilities=0|0|12|0|0|32 , ) 
t 0.121562 /NodeList/0/DeviceList/1/$ns3::WifiNetDevice/Phy/State/Tx OfdmRate6Mbps ns3::WifiMacHeader (CTL_ACK Duration/ID=1820us, RA=00:00:00:00:00:08) 
r 0.121606 OfdmRate6Mbps /NodeList/5/DeviceList/0/$ns3::WifiNetDevice/Phy/State/RxOk ns3::WifiMacHeader (CTL_ACK Duration/ID=1820us, RA=00:00:00:00:00:08) 
r 0.121606 OfdmRate6Mbps /NodeList/6/DeviceList/0/$ns3::WifiNetDevice/Phy/State/RxOk ns3::WifiMacHeader (CTL_ACK Duration/ID=1820us, RA=00:00:00:00:00:08) 
r 0.121606 OfdmRate6Mbps /NodeList/7/DeviceList/0/$ns3::WifiNetDevice/Phy/State/RxOk ns3::WifiMacHeader (CTL_ACK Duration/ID=1820us, RA=00:00:00:00:00:08) 
t 0.121622 /NodeList/6/DeviceList/0/$ns3::WifiNetDevice/Phy/State/Tx OfdmRate6Mbps ns3::WifiMacHeader (CTL_END ) 
r 0.121674 OfdmRate6Mbps /NodeList/7/DeviceList/0/$ns3::WifiNetDevice/Phy/State/RxOk ns3::WifiMacHeader (CTL_END ) 
r 0.121674 OfdmRate6Mbps /NodeList/5/DeviceList/0/$ns3::WifiNetDevice/Phy/State/RxOk ns3::WifiMacHeader (CTL_END ) 
r 0.121674 OfdmRate6Mbps /NodeList/0/DeviceList/1/$ns3::WifiNetDevice/Phy/State/RxOk ns3::WifiMacHeader (CTL_END ) 
t 0.121735 /NodeList/0/DeviceList/1/$ns3::WifiNetDevice/Phy/State/Tx OfdmRate6Mbps ns3::WifiMacHeader (MGT_ASSOCIATION_RESPONSE ToDS=0, FromDS=0, MoreFrag=0, Retry=1, PowerManagement=0, MoreData=0 Duration/ID=1812us, DA=00:00:00:00:00:07, SA=00:00:00:00:00:0a, BSSID=00:00:00:00:00:0a, FragNumber=0, SeqNumber=1) ns3::MgtAssocResponseHeader (status code=success, aid=1, rates=[*6mbs 9mbs *12mbs 18mbs *24mbs 36mbs 48mbs 54mbs] , rates=[0mbs] ,  , HT Capabilities=0|1|0|1 1 1 1 1 1 1 1 0 0 0 0 0 0 0 0 0 0 0 0 0 0 0 0 0 0 0 0 0 0 0 0 0 0 0 0 0 0 0 0 0 0 0 0 0 0 0 0 0 0 0 0 0 0 0 0 0 0 0 0 0 0 0 0 0 0 0 0 0 0 0 0 0 0 0 0 0  , HT Operation=1|1|1|0|0|1|0|0|0|0|0|0|0|65|1|0|0|0|1 0 0 0 0 0 0 0 0 0 0 0 0 0 0 0 0 0 0 0 0 0 0 0 0 0 0 0 0 0 0 0 0 0 0 0 0 0 0 0 0 0 0 0 0 0 0 0 0 0 0 0 0 0 0 0 0 0 0 0 0 0 0 0 0 0 0 0 0 0 0 0 0 0 0 0 0  , Extended Capabilities=0 , VHT Capabilities=25165828|219831948272271358 , VHT Operation=1|42|0|2 , HE Capabilities=0|0|12|0|0|32 , HE Operation=[HE Operation Parameters|Default PE Duration: 0 TWT Required: 0 TXOP Duration RTS Threshold: 0 VHT Operation Information Present: 0 Co-Hosted BSS: 0 ER SU Disable: 0 6 GHz Operation Information Present: 0][BSS Color|BSS Color: 0 Partial BSS Color: 0 BSS Color Disabled: 0][Basic HE-MCS And NSS Set: 65534] , ) 
r 0.122003 OfdmRate6Mbps /NodeList/5/DeviceList/0/$ns3::WifiNetDevice/Phy/State/RxOk ns3::WifiMacHeader (MGT_ASSOCIATION_RESPONSE ToDS=0, FromDS=0, MoreFrag=0, Retry=1, PowerManagement=0, MoreData=0 Duration/ID=1812us, DA=00:00:00:00:00:07, SA=00:00:00:00:00:0a, BSSID=00:00:00:00:00:0a, FragNumber=0, SeqNumber=1) ns3::MgtAssocResponseHeader (status code=success, aid=1, rates=[*6mbs 9mbs *12mbs 18mbs *24mbs 36mbs 48mbs 54mbs] , rates=[0mbs] ,  , HT Capabilities=0|1|0|1 1 1 1 1 1 1 1 0 0 0 0 0 0 0 0 0 0 0 0 0 0 0 0 0 0 0 0 0 0 0 0 0 0 0 0 0 0 0 0 0 0 0 0 0 0 0 0 0 0 0 0 0 0 0 0 0 0 0 0 0 0 0 0 0 0 0 0 0 0 0 0 0 0 0 0 0  , HT Operation=1|1|1|0|0|1|0|0|0|0|0|0|0|65|1|0|0|0|1 0 0 0 0 0 0 0 0 0 0 0 0 0 0 0 0 0 0 0 0 0 0 0 0 0 0 0 0 0 0 0 0 0 0 0 0 0 0 0 0 0 0 0 0 0 0 0 0 0 0 0 0 0 0 0 0 0 0 0 0 0 0 0 0 0 0 0 0 0 0 0 0 0 0 0 0  , Extended Capabilities=0 , VHT Capabilities=25165828|219831948272271358 , VHT Operation=1|42|0|2 , HE Capabilities=0|0|12|0|0|32 , HE Operation=[HE Operation Parameters|Default PE Duration: 0 TWT Required: 0 TXOP Duration RTS Threshold: 0 VHT Operation Information Present: 0 Co-Hosted BSS: 0 ER SU Disable: 0 6 GHz Operation Information Present: 0][BSS Color|BSS Color: 0 Partial BSS Color: 0 BSS Color Disabled: 0][Basic HE-MCS And NSS Set: 65534] , ) 
r 0.122003 OfdmRate6Mbps /NodeList/6/DeviceList/0/$ns3::WifiNetDevice/Phy/State/RxOk ns3::WifiMacHeader (MGT_ASSOCIATION_RESPONSE ToDS=0, FromDS=0, MoreFrag=0, Retry=1, PowerManagement=0, MoreData=0 Duration/ID=1812us, DA=00:00:00:00:00:07, SA=00:00:00:00:00:0a, BSSID=00:00:00:00:00:0a, FragNumber=0, SeqNumber=1) ns3::MgtAssocResponseHeader (status code=success, aid=1, rates=[*6mbs 9mbs *12mbs 18mbs *24mbs 36mbs 48mbs 54mbs] , rates=[0mbs] ,  , HT Capabilities=0|1|0|1 1 1 1 1 1 1 1 0 0 0 0 0 0 0 0 0 0 0 0 0 0 0 0 0 0 0 0 0 0 0 0 0 0 0 0 0 0 0 0 0 0 0 0 0 0 0 0 0 0 0 0 0 0 0 0 0 0 0 0 0 0 0 0 0 0 0 0 0 0 0 0 0 0 0 0 0  , HT Operation=1|1|1|0|0|1|0|0|0|0|0|0|0|65|1|0|0|0|1 0 0 0 0 0 0 0 0 0 0 0 0 0 0 0 0 0 0 0 0 0 0 0 0 0 0 0 0 0 0 0 0 0 0 0 0 0 0 0 0 0 0 0 0 0 0 0 0 0 0 0 0 0 0 0 0 0 0 0 0 0 0 0 0 0 0 0 0 0 0 0 0 0 0 0 0  , Extended Capabilities=0 , VHT Capabilities=25165828|219831948272271358 , VHT Operation=1|42|0|2 , HE Capabilities=0|0|12|0|0|32 , HE Operation=[HE Operation Parameters|Default PE Duration: 0 TWT Required: 0 TXOP Duration RTS Threshold: 0 VHT Operation Information Present: 0 Co-Hosted BSS: 0 ER SU Disable: 0 6 GHz Operation Information Present: 0][BSS Color|BSS Color: 0 Partial BSS Color: 0 BSS Color Disabled: 0][Basic HE-MCS And NSS Set: 65534] , ) 
r 0.122003 OfdmRate6Mbps /NodeList/7/DeviceList/0/$ns3::WifiNetDevice/Phy/State/RxOk ns3::WifiMacHeader (MGT_ASSOCIATION_RESPONSE ToDS=0, FromDS=0, MoreFrag=0, Retry=1, PowerManagement=0, MoreData=0 Duration/ID=1812us, DA=00:00:00:00:00:07, SA=00:00:00:00:00:0a, BSSID=00:00:00:00:00:0a, FragNumber=0, SeqNumber=1) ns3::MgtAssocResponseHeader (status code=success, aid=1, rates=[*6mbs 9mbs *12mbs 18mbs *24mbs 36mbs 48mbs 54mbs] , rates=[0mbs] ,  , HT Capabilities=0|1|0|1 1 1 1 1 1 1 1 0 0 0 0 0 0 0 0 0 0 0 0 0 0 0 0 0 0 0 0 0 0 0 0 0 0 0 0 0 0 0 0 0 0 0 0 0 0 0 0 0 0 0 0 0 0 0 0 0 0 0 0 0 0 0 0 0 0 0 0 0 0 0 0 0 0 0 0 0  , HT Operation=1|1|1|0|0|1|0|0|0|0|0|0|0|65|1|0|0|0|1 0 0 0 0 0 0 0 0 0 0 0 0 0 0 0 0 0 0 0 0 0 0 0 0 0 0 0 0 0 0 0 0 0 0 0 0 0 0 0 0 0 0 0 0 0 0 0 0 0 0 0 0 0 0 0 0 0 0 0 0 0 0 0 0 0 0 0 0 0 0 0 0 0 0 0 0  , Extended Capabilities=0 , VHT Capabilities=25165828|219831948272271358 , VHT Operation=1|42|0|2 , HE Capabilities=0|0|12|0|0|32 , HE Operation=[HE Operation Parameters|Default PE Duration: 0 TWT Required: 0 TXOP Duration RTS Threshold: 0 VHT Operation Information Present: 0 Co-Hosted BSS: 0 ER SU Disable: 0 6 GHz Operation Information Present: 0][BSS Color|BSS Color: 0 Partial BSS Color: 0 BSS Color Disabled: 0][Basic HE-MCS And NSS Set: 65534] , ) 
t 0.122019 /NodeList/5/DeviceList/0/$ns3::WifiNetDevice/Phy/State/Tx OfdmRate6Mbps ns3::WifiMacHeader (CTL_ACK Duration/ID=1752us, RA=00:00:00:00:00:0a) 
r 0.122063 OfdmRate6Mbps /NodeList/6/DeviceList/0/$ns3::WifiNetDevice/Phy/State/RxOk ns3::WifiMacHeader (CTL_ACK Duration/ID=1752us, RA=00:00:00:00:00:0a) 
r 0.122063 OfdmRate6Mbps /NodeList/0/DeviceList/1/$ns3::WifiNetDevice/Phy/State/RxOk ns3::WifiMacHeader (CTL_ACK Duration/ID=1752us, RA=00:00:00:00:00:0a) 
r 0.122063 OfdmRate6Mbps /NodeList/7/DeviceList/0/$ns3::WifiNetDevice/Phy/State/RxOk ns3::WifiMacHeader (CTL_ACK Duration/ID=1752us, RA=00:00:00:00:00:0a) 
t 0.122079 /NodeList/0/DeviceList/1/$ns3::WifiNetDevice/Phy/State/Tx OfdmRate6Mbps ns3::WifiMacHeader (MGT_ASSOCIATION_RESPONSE ToDS=0, FromDS=0, MoreFrag=0, Retry=0, PowerManagement=0, MoreData=0 Duration/ID=1468us, DA=00:00:00:00:00:09, SA=00:00:00:00:00:0a, BSSID=00:00:00:00:00:0a, FragNumber=0, SeqNumber=2) ns3::MgtAssocResponseHeader (status code=success, aid=2, rates=[*6mbs 9mbs *12mbs 18mbs *24mbs 36mbs 48mbs 54mbs] , rates=[0mbs] ,  , HT Capabilities=0|1|0|1 1 1 1 1 1 1 1 0 0 0 0 0 0 0 0 0 0 0 0 0 0 0 0 0 0 0 0 0 0 0 0 0 0 0 0 0 0 0 0 0 0 0 0 0 0 0 0 0 0 0 0 0 0 0 0 0 0 0 0 0 0 0 0 0 0 0 0 0 0 0 0 0 0 0 0 0  , HT Operation=1|1|1|0|0|1|0|0|0|0|0|0|0|65|1|0|0|0|1 0 0 0 0 0 0 0 0 0 0 0 0 0 0 0 0 0 0 0 0 0 0 0 0 0 0 0 0 0 0 0 0 0 0 0 0 0 0 0 0 0 0 0 0 0 0 0 0 0 0 0 0 0 0 0 0 0 0 0 0 0 0 0 0 0 0 0 0 0 0 0 0 0 0 0 0  , Extended Capabilities=0 , VHT Capabilities=25165828|219831948272271358 , VHT Operation=1|42|0|2 , HE Capabilities=0|0|12|0|0|32 , HE Operation=[HE Operation Parameters|Default PE Duration: 0 TWT Required: 0 TXOP Duration RTS Threshold: 0 VHT Operation Information Present: 0 Co-Hosted BSS: 0 ER SU Disable: 0 6 GHz Operation Information Present: 0][BSS Color|BSS Color: 0 Partial BSS Color: 0 BSS Color Disabled: 0][Basic HE-MCS And NSS Set: 65534] , ) 